
     Program BANDS v.7.0 starts on 25Jun2022 at 12:50: 8 

     This program is part of the open-source Quantum ESPRESSO suite
     for quantum simulation of materials; please cite
         "P. Giannozzi et al., J. Phys.:Condens. Matter 21 395502 (2009);
         "P. Giannozzi et al., J. Phys.:Condens. Matter 29 465901 (2017);
         "P. Giannozzi et al., J. Chem. Phys. 152 154105 (2020);
          URL http://www.quantum-espresso.org", 
     in publications or presentations arising from this work. More details at
     http://www.quantum-espresso.org/quote

     Parallel version (MPI & OpenMP), running on      28 processor cores
     Number of MPI processes:                28
     Threads/MPI process:                     1

     MPI processes distributed on     1 nodes
     K-points division:     npool     =       7
     R & G space division:  proc/nbgrp/npool/nimage =       4
     54457 MiB available memory on the printing compute node when the environment starts
 

     Reading xml data from directory:

     ./graphene.save/
     file C.pbe-n-kjpaw_psl.1.0.0.UPF: wavefunction(s)  2S 2P renormalized

     IMPORTANT: XC functional enforced from input :
     Exchange-correlation= PBE
                           (   1   4   3   4   0   0   0)
     Any further DFT definition will be discarded
     Please, verify this is what you really want

 
     Parallelization info
     --------------------
     sticks:   dense  smooth     PW     G-vecs:    dense   smooth      PW
     Min         180     118     37                31568    17152    2875
     Max         181     119     38                31589    17183    2888
     Sum         721     475    151               126311    68693   11537
 
     Using Slab Decomposition
 

     negative rho (up, down):  1.103E-04 0.000E+00
     Reading collected, re-writing distributed wavefunctions
     high-symmetry point:  0.0000 0.0000 0.0000   x coordinate   0.0000
     high-symmetry point:  0.5000 0.2887 0.0000   x coordinate   0.5774
     high-symmetry point:  0.6667 0.0000 0.0000   x coordinate   0.9107
     high-symmetry point:  0.0000 0.0000 0.0000   x coordinate   1.5774

     Plottable bands (eV) written to file graphene.bands.dat.gnu
     Bands written to file graphene.bands.dat

 **************************************************************************

                    xk=(   0.00000,   0.00000,   0.00000  )

     point group D_6h(6/mmm)
     there are 12 classes
     the character table:

       E     2C6   2C3   C2    3C2'  3C2'' i     2S3   2S6   s_h   3s_d  3s_v 
A_1g   1.00  1.00  1.00  1.00  1.00  1.00  1.00  1.00  1.00  1.00  1.00  1.00
A_2g   1.00  1.00  1.00  1.00 -1.00 -1.00  1.00  1.00  1.00  1.00 -1.00 -1.00
B_1g   1.00 -1.00  1.00 -1.00  1.00 -1.00  1.00 -1.00  1.00 -1.00  1.00 -1.00
B_2g   1.00 -1.00  1.00 -1.00 -1.00  1.00  1.00 -1.00  1.00 -1.00 -1.00  1.00
E_1g   2.00  1.00 -1.00 -2.00  0.00  0.00  2.00  1.00 -1.00 -2.00  0.00  0.00
E_2g   2.00 -1.00 -1.00  2.00  0.00  0.00  2.00 -1.00 -1.00  2.00  0.00  0.00
A_1u   1.00  1.00  1.00  1.00  1.00  1.00 -1.00 -1.00 -1.00 -1.00 -1.00 -1.00
A_2u   1.00  1.00  1.00  1.00 -1.00 -1.00 -1.00 -1.00 -1.00 -1.00  1.00  1.00
B_1u   1.00 -1.00  1.00 -1.00  1.00 -1.00 -1.00  1.00 -1.00  1.00 -1.00  1.00
B_2u   1.00 -1.00  1.00 -1.00 -1.00  1.00 -1.00  1.00 -1.00  1.00  1.00 -1.00
E_1u   2.00  1.00 -1.00 -2.00  0.00  0.00 -2.00 -1.00  1.00  2.00  0.00  0.00
E_2u   2.00 -1.00 -1.00  2.00  0.00  0.00 -2.00  1.00  1.00 -2.00  0.00  0.00

     the symmetry operations in each class and the name of the first element:

     E        1
                                                                 
     2C6      5    6
                                                                 
     2C3      7    8
                                                                 
     C2       2
                                                                 
     3C2'     4   12   11
                                                                 
     3C2''    3    9   10
                                                                 
     i       13
                                                                 
     2S3     17   18
                                                                 
     2S6     19   20
                                                                 
     s_h     14
                                                                 
     3s_d    16   24   23
                                                                 
     3s_v    15   21   22
                                                                 

     Band symmetry, D_6h(6/mmm) point group:

     e(  1 -  1) =    -21.87150  eV     1   --> A_1g           
     e(  2 -  2) =     -9.96774  eV     1   --> A_2u           
     e(  3 -  4) =     -5.40956  eV     2   --> E_2g           
     e(  5 -  5) =      0.89200  eV     1   --> A_1g           
     e(  6 -  6) =      1.63457  eV     1   --> A_2u           
     e(  7 -  7) =      1.83602  eV     1   --> A_1g           
     e(  8 -  8) =      2.79783  eV     1   --> A_2u           
     e(  9 -  9) =      3.26740  eV     1   --> A_1g           
     e( 10 - 10) =      4.94080  eV     1   --> A_2u           
     e( 11 - 11) =      5.58746  eV     1   --> A_1g           
     e( 12 - 13) =      5.96300  eV     2   --> E_1u           
     e( 14 - 14) =      7.91717  eV     1   --> A_2u           
     e( 15 - 15) =      8.70700  eV     1   --> A_1g           
     e( 16 - 16) =      9.04858  eV     1   --> B_1g           
     e( 17 - 17) =     10.11768  eV     1   --> B_2u           
     e( 18 - 18) =     11.65192  eV     1   --> A_2u           
     e( 19 - 19) =     12.66065  eV     1   --> A_1g           
     e( 20 - 20) =     16.13951  eV     1   --> A_2u           
     e( 21 - 21) =     17.41366  eV     1   --> A_1g           
     e( 22 - 22) =     20.11809  eV     1   --> A_1g           
     e( 23 - 23) =     21.28185  eV     1   --> A_2u           
     e( 24 - 24) =     22.93682  eV     1   --> A_1g           
     e( 25 - 26) =     25.84180  eV     2   --> E_2u           
     e( 27 - 27) =     26.66990  eV     1   --> A_2u           
     e( 28 - 28) =     29.22431  eV     1   --> A_1g           
     e( 29 - 30) =     29.22866  eV     2   --> E_1g           
     e( 31 - 31) =     30.56870  eV     1   --> A_2u           
     e( 32 - 33) =     32.82420  eV     2   --> E_2g           
     e( 34 - 35) =     33.32525  eV     2   --> E_1u           
     e( 36 - 36) =     33.81681  eV     1   --> B_2u           

 **************************************************************************

 **************************************************************************

                    xk=(   0.01250,   0.00722,   0.00000  )

     point group C_2v (mm2) 
     there are  4 classes
     the character table:

       E     C2    s_v   s_v' 
A_1    1.00  1.00  1.00  1.00
A_2    1.00  1.00 -1.00 -1.00
B_1    1.00 -1.00  1.00 -1.00
B_2    1.00 -1.00 -1.00  1.00

     the symmetry operations in each class and the name of the first element:

     E        1
                                                                 
     C2       2
                                                                 
     s_v      3
                                                                 
     s_v'     4
                                                                 

     Band symmetry, C_2v (mm2)  point group:

     e(  1 -  1) =    -21.86781  eV     1   --> A_1  D_1  S_1  
     e(  2 -  2) =     -9.96332  eV     1   --> B_2  D_4  S_4  
     e(  3 -  3) =     -5.42498  eV     1   --> A_1  D_1  S_1  
     e(  4 -  4) =     -5.41772  eV     1   --> B_1  D_3  S_3  
     e(  5 -  5) =      0.89701  eV     1   --> A_1  D_1  S_1  
     e(  6 -  6) =      1.63965  eV     1   --> B_2  D_4  S_4  
     e(  7 -  7) =      1.84115  eV     1   --> A_1  D_1  S_1  
     e(  8 -  8) =      2.80291  eV     1   --> B_2  D_4  S_4  
     e(  9 -  9) =      3.27247  eV     1   --> A_1  D_1  S_1  
     e( 10 - 10) =      4.94584  eV     1   --> B_2  D_4  S_4  
     e( 11 - 11) =      5.59220  eV     1   --> A_1  D_1  S_1  
     e( 12 - 12) =      5.96569  eV     1   --> A_1  D_1  S_1  
     e( 13 - 13) =      5.97920  eV     1   --> B_1  D_3  S_3  
     e( 14 - 14) =      7.92212  eV     1   --> B_2  D_4  S_4  
     e( 15 - 15) =      8.71210  eV     1   --> A_1  D_1  S_1  
     e( 16 - 16) =      9.03559  eV     1   --> B_2  D_4  S_4  
     e( 17 - 17) =     10.12413  eV     1   --> A_1  D_1  S_1  
     e( 18 - 18) =     11.65671  eV     1   --> B_2  D_4  S_4  
     e( 19 - 19) =     12.66569  eV     1   --> A_1  D_1  S_1  
     e( 20 - 20) =     16.14391  eV     1   --> B_2  D_4  S_4  
     e( 21 - 21) =     17.41866  eV     1   --> A_1  D_1  S_1  
     e( 22 - 22) =     20.13028  eV     1   --> A_1  D_1  S_1  
     e( 23 - 23) =     21.28451  eV     1   --> B_2  D_4  S_4  
     e( 24 - 24) =     22.94172  eV     1   --> A_1  D_1  S_1  
     e( 25 - 25) =     25.79891  eV     1   --> A_2  D_2  S_2  
     e( 26 - 26) =     25.80645  eV     1   --> B_2  D_4  S_4  
     e( 27 - 27) =     26.64927  eV     1   --> B_2  D_4  S_4  
     e( 28 - 28) =     29.17950  eV     1   --> B_2  D_4  S_4  
     e( 29 - 29) =     29.22907  eV     1   --> A_1  D_1  S_1  
     e( 30 - 30) =     29.28052  eV     1   --> A_2  D_2  S_2  
     e( 31 - 31) =     30.69718  eV     1   --> B_2  D_4  S_4  
     e( 32 - 32) =     32.42115  eV     1   --> A_1  D_1  S_1  
     e( 33 - 33) =     32.60866  eV     1   --> B_1  D_3  S_3  
     e( 34 - 34) =     33.26414  eV     1   --> A_1  D_1  S_1  
     e( 35 - 35) =     33.54817  eV     1   --> B_1  D_3  S_3  
     e( 36 - 36) =     33.72456  eV     1   --> B_2  D_4  S_4  

 **************************************************************************

 **************************************************************************

                    xk=(   0.02500,   0.01443,   0.00000  )

     Band symmetry, C_2v (mm2)  point group:

     e(  1 -  1) =    -21.85675  eV     1   --> A_1  D_1  S_1  
     e(  2 -  2) =     -9.95009  eV     1   --> B_2  D_4  S_4  
     e(  3 -  3) =     -5.47099  eV     1   --> A_1  D_1  S_1  
     e(  4 -  4) =     -5.44202  eV     1   --> B_1  D_3  S_3  
     e(  5 -  5) =      0.91204  eV     1   --> A_1  D_1  S_1  
     e(  6 -  6) =      1.65490  eV     1   --> B_2  D_4  S_4  
     e(  7 -  7) =      1.85654  eV     1   --> A_1  D_1  S_1  
     e(  8 -  8) =      2.81816  eV     1   --> B_2  D_4  S_4  
     e(  9 -  9) =      3.28770  eV     1   --> A_1  D_1  S_1  
     e( 10 - 10) =      4.96095  eV     1   --> B_2  D_4  S_4  
     e( 11 - 11) =      5.60640  eV     1   --> A_1  D_1  S_1  
     e( 12 - 12) =      5.97347  eV     1   --> A_1  D_1  S_1  
     e( 13 - 13) =      6.02761  eV     1   --> B_1  D_3  S_3  
     e( 14 - 14) =      7.93698  eV     1   --> B_2  D_4  S_4  
     e( 15 - 15) =      8.72741  eV     1   --> A_1  D_1  S_1  
     e( 16 - 16) =      8.99674  eV     1   --> B_2  D_4  S_4  
     e( 17 - 17) =     10.14361  eV     1   --> A_1  D_1  S_1  
     e( 18 - 18) =     11.67109  eV     1   --> B_2  D_4  S_4  
     e( 19 - 19) =     12.68083  eV     1   --> A_1  D_1  S_1  
     e( 20 - 20) =     16.15708  eV     1   --> B_2  D_4  S_4  
     e( 21 - 21) =     17.43367  eV     1   --> A_1  D_1  S_1  
     e( 22 - 22) =     20.16667  eV     1   --> A_1  D_1  S_1  
     e( 23 - 23) =     21.29228  eV     1   --> B_2  D_4  S_4  
     e( 24 - 24) =     22.95643  eV     1   --> A_1  D_1  S_1  
     e( 25 - 25) =     25.67749  eV     1   --> A_2  D_2  S_2  
     e( 26 - 26) =     25.68975  eV     1   --> B_2  D_4  S_4  
     e( 27 - 27) =     26.60683  eV     1   --> B_2  D_4  S_4  
     e( 28 - 28) =     29.08154  eV     1   --> B_2  D_4  S_4  
     e( 29 - 29) =     29.24335  eV     1   --> A_1  D_1  S_1  
     e( 30 - 30) =     29.42870  eV     1   --> A_2  D_2  S_2  
     e( 31 - 31) =     31.02279  eV     1   --> B_2  D_4  S_4  
     e( 32 - 32) =     31.75371  eV     1   --> A_1  D_1  S_1  
     e( 33 - 33) =     32.25730  eV     1   --> B_1  D_3  S_3  
     e( 34 - 34) =     32.97678  eV     1   --> A_1  D_1  S_1  
     e( 35 - 35) =     33.06278  eV     1   --> B_2  D_4  S_4  
     e( 36 - 36) =     33.13142  eV     1   --> A_1  D_1  S_1  

 **************************************************************************

 **************************************************************************

                    xk=(   0.03750,   0.02165,   0.00000  )

     Band symmetry, C_2v (mm2)  point group:

     e(  1 -  1) =    -21.83832  eV     1   --> A_1  D_1  S_1  
     e(  2 -  2) =     -9.92803  eV     1   --> B_2  D_4  S_4  
     e(  3 -  3) =     -5.54691  eV     1   --> A_1  D_1  S_1  
     e(  4 -  4) =     -5.48198  eV     1   --> B_1  D_3  S_3  
     e(  5 -  5) =      0.93709  eV     1   --> A_1  D_1  S_1  
     e(  6 -  6) =      1.68031  eV     1   --> B_2  D_4  S_4  
     e(  7 -  7) =      1.88218  eV     1   --> A_1  D_1  S_1  
     e(  8 -  8) =      2.84356  eV     1   --> B_2  D_4  S_4  
     e(  9 -  9) =      3.31307  eV     1   --> A_1  D_1  S_1  
     e( 10 - 10) =      4.98614  eV     1   --> B_2  D_4  S_4  
     e( 11 - 11) =      5.63001  eV     1   --> A_1  D_1  S_1  
     e( 12 - 12) =      5.98562  eV     1   --> A_1  D_1  S_1  
     e( 13 - 13) =      6.10771  eV     1   --> B_1  D_3  S_3  
     e( 14 - 14) =      7.96174  eV     1   --> B_2  D_4  S_4  
     e( 15 - 15) =      8.75292  eV     1   --> A_1  D_1  S_1  
     e( 16 - 16) =      8.93238  eV     1   --> B_2  D_4  S_4  
     e( 17 - 17) =     10.17649  eV     1   --> A_1  D_1  S_1  
     e( 18 - 18) =     11.69503  eV     1   --> B_2  D_4  S_4  
     e( 19 - 19) =     12.70605  eV     1   --> A_1  D_1  S_1  
     e( 20 - 20) =     16.17896  eV     1   --> B_2  D_4  S_4  
     e( 21 - 21) =     17.45865  eV     1   --> A_1  D_1  S_1  
     e( 22 - 22) =     20.22668  eV     1   --> A_1  D_1  S_1  
     e( 23 - 23) =     21.30443  eV     1   --> B_2  D_4  S_4  
     e( 24 - 24) =     22.98098  eV     1   --> A_1  D_1  S_1  
     e( 25 - 25) =     25.47743  eV     1   --> B_2  D_4  S_4  
     e( 26 - 26) =     25.49474  eV     1   --> A_2  D_2  S_2  
     e( 27 - 27) =     26.57987  eV     1   --> B_2  D_4  S_4  
     e( 28 - 28) =     28.99600  eV     1   --> B_2  D_4  S_4  
     e( 29 - 29) =     29.26715  eV     1   --> A_1  D_1  S_1  
     e( 30 - 30) =     29.65553  eV     1   --> A_2  D_2  S_2  
     e( 31 - 31) =     31.04349  eV     1   --> A_1  D_1  S_1  
     e( 32 - 32) =     31.45593  eV     1   --> B_2  D_4  S_4  
     e( 33 - 33) =     31.89364  eV     1   --> B_1  D_3  S_3  
     e( 34 - 34) =     32.31119  eV     1   --> A_1  D_1  S_1  
     e( 35 - 35) =     32.32144  eV     1   --> B_2  D_4  S_4  
     e( 36 - 36) =     32.67854  eV     1   --> A_1  D_1  S_1  

 **************************************************************************

 **************************************************************************

                    xk=(   0.05000,   0.02887,   0.00000  )

     Band symmetry, C_2v (mm2)  point group:

     e(  1 -  1) =    -21.81252  eV     1   --> A_1  D_1  S_1  
     e(  2 -  2) =     -9.89717  eV     1   --> B_2  D_4  S_4  
     e(  3 -  3) =     -5.65167  eV     1   --> A_1  D_1  S_1  
     e(  4 -  4) =     -5.53684  eV     1   --> B_1  D_3  S_3  
     e(  5 -  5) =      0.97217  eV     1   --> A_1  D_1  S_1  
     e(  6 -  6) =      1.71588  eV     1   --> B_2  D_4  S_4  
     e(  7 -  7) =      1.91809  eV     1   --> A_1  D_1  S_1  
     e(  8 -  8) =      2.87912  eV     1   --> B_2  D_4  S_4  
     e(  9 -  9) =      3.34860  eV     1   --> A_1  D_1  S_1  
     e( 10 - 10) =      5.02140  eV     1   --> B_2  D_4  S_4  
     e( 11 - 11) =      5.66289  eV     1   --> A_1  D_1  S_1  
     e( 12 - 12) =      6.00103  eV     1   --> A_1  D_1  S_1  
     e( 13 - 13) =      6.21870  eV     1   --> B_1  D_3  S_3  
     e( 14 - 14) =      7.99638  eV     1   --> B_2  D_4  S_4  
     e( 15 - 15) =      8.78859  eV     1   --> A_1  D_1  S_1  
     e( 16 - 16) =      8.84304  eV     1   --> B_2  D_4  S_4  
     e( 17 - 17) =     10.22331  eV     1   --> A_1  D_1  S_1  
     e( 18 - 18) =     11.72852  eV     1   --> B_2  D_4  S_4  
     e( 19 - 19) =     12.74133  eV     1   --> A_1  D_1  S_1  
     e( 20 - 20) =     16.20944  eV     1   --> B_2  D_4  S_4  
     e( 21 - 21) =     17.49356  eV     1   --> A_1  D_1  S_1  
     e( 22 - 22) =     20.30930  eV     1   --> A_1  D_1  S_1  
     e( 23 - 23) =     21.31967  eV     1   --> B_2  D_4  S_4  
     e( 24 - 24) =     23.01541  eV     1   --> A_1  D_1  S_1  
     e( 25 - 25) =     25.17931  eV     1   --> B_2  D_4  S_4  
     e( 26 - 26) =     25.26942  eV     1   --> A_2  D_2  S_2  
     e( 27 - 27) =     26.58695  eV     1   --> B_2  D_4  S_4  
     e( 28 - 28) =     28.94217  eV     1   --> B_2  D_4  S_4  
     e( 29 - 29) =     29.30043  eV     1   --> A_1  D_1  S_1  
     e( 30 - 30) =     29.94122  eV     1   --> A_2  D_2  S_2  
     e( 31 - 31) =     30.32374  eV     1   --> A_1  D_1  S_1  
     e( 32 - 32) =     31.53311  eV     1   --> B_1  D_3  S_3  
     e( 33 - 33) =     31.53417  eV     1   --> A_1  D_1  S_1  
     e( 34 - 34) =     31.56413  eV     1   --> B_2  D_4  S_4  
     e( 35 - 35) =     31.94156  eV     1   --> B_2  D_4  S_4  
     e( 36 - 36) =     32.32473  eV     1   --> A_1  D_1  S_1  

 **************************************************************************

 **************************************************************************

                    xk=(   0.06250,   0.03608,   0.00000  )

     Band symmetry, C_2v (mm2)  point group:

     e(  1 -  1) =    -21.77936  eV     1   --> A_1  D_1  S_1  
     e(  2 -  2) =     -9.85753  eV     1   --> B_2  D_4  S_4  
     e(  3 -  3) =     -5.78382  eV     1   --> A_1  D_1  S_1  
     e(  4 -  4) =     -5.60556  eV     1   --> B_1  D_3  S_3  
     e(  5 -  5) =      1.01727  eV     1   --> A_1  D_1  S_1  
     e(  6 -  6) =      1.76161  eV     1   --> B_2  D_4  S_4  
     e(  7 -  7) =      1.96426  eV     1   --> A_1  D_1  S_1  
     e(  8 -  8) =      2.92484  eV     1   --> B_2  D_4  S_4  
     e(  9 -  9) =      3.39429  eV     1   --> A_1  D_1  S_1  
     e( 10 - 10) =      5.06672  eV     1   --> B_2  D_4  S_4  
     e( 11 - 11) =      5.70475  eV     1   --> A_1  D_1  S_1  
     e( 12 - 12) =      6.01849  eV     1   --> A_1  D_1  S_1  
     e( 13 - 13) =      6.35948  eV     1   --> B_1  D_3  S_3  
     e( 14 - 14) =      8.04089  eV     1   --> B_2  D_4  S_4  
     e( 15 - 15) =      8.72950  eV     1   --> B_2  D_4  S_4  
     e( 16 - 16) =      8.83441  eV     1   --> A_1  D_1  S_1  
     e( 17 - 17) =     10.28473  eV     1   --> A_1  D_1  S_1  
     e( 18 - 18) =     11.77151  eV     1   --> B_2  D_4  S_4  
     e( 19 - 19) =     12.78665  eV     1   --> A_1  D_1  S_1  
     e( 20 - 20) =     16.24836  eV     1   --> B_2  D_4  S_4  
     e( 21 - 21) =     17.53836  eV     1   --> A_1  D_1  S_1  
     e( 22 - 22) =     20.41312  eV     1   --> A_1  D_1  S_1  
     e( 23 - 23) =     21.33584  eV     1   --> B_2  D_4  S_4  
     e( 24 - 24) =     23.05978  eV     1   --> A_1  D_1  S_1  
     e( 25 - 25) =     24.82434  eV     1   --> B_2  D_4  S_4  
     e( 26 - 26) =     25.01695  eV     1   --> A_2  D_2  S_2  
     e( 27 - 27) =     26.62499  eV     1   --> B_2  D_4  S_4  
     e( 28 - 28) =     28.91754  eV     1   --> B_2  D_4  S_4  
     e( 29 - 29) =     29.34260  eV     1   --> A_1  D_1  S_1  
     e( 30 - 30) =     29.60522  eV     1   --> A_1  D_1  S_1  
     e( 31 - 31) =     30.26835  eV     1   --> A_2  D_2  S_2  
     e( 32 - 32) =     30.76317  eV     1   --> A_1  D_1  S_1  
     e( 33 - 33) =     30.81591  eV     1   --> B_2  D_4  S_4  
     e( 34 - 34) =     31.17943  eV     1   --> B_1  D_3  S_3  
     e( 35 - 35) =     31.92630  eV     1   --> A_1  D_1  S_1  
     e( 36 - 36) =     31.95163  eV     1   --> B_2  D_4  S_4  

 **************************************************************************

 **************************************************************************

                    xk=(   0.07500,   0.04330,   0.00000  )

     Band symmetry, C_2v (mm2)  point group:

     e(  1 -  1) =    -21.73885  eV     1   --> A_1  D_1  S_1  
     e(  2 -  2) =     -9.80912  eV     1   --> B_2  D_4  S_4  
     e(  3 -  3) =     -5.94166  eV     1   --> A_1  D_1  S_1  
     e(  4 -  4) =     -5.68696  eV     1   --> B_1  D_3  S_3  
     e(  5 -  5) =      1.07239  eV     1   --> A_1  D_1  S_1  
     e(  6 -  6) =      1.81749  eV     1   --> B_2  D_4  S_4  
     e(  7 -  7) =      2.02069  eV     1   --> A_1  D_1  S_1  
     e(  8 -  8) =      2.98071  eV     1   --> B_2  D_4  S_4  
     e(  9 -  9) =      3.45013  eV     1   --> A_1  D_1  S_1  
     e( 10 - 10) =      5.12210  eV     1   --> B_2  D_4  S_4  
     e( 11 - 11) =      5.75496  eV     1   --> A_1  D_1  S_1  
     e( 12 - 12) =      6.03694  eV     1   --> A_1  D_1  S_1  
     e( 13 - 13) =      6.52875  eV     1   --> B_1  D_3  S_3  
     e( 14 - 14) =      8.09520  eV     1   --> B_2  D_4  S_4  
     e( 15 - 15) =      8.59270  eV     1   --> B_2  D_4  S_4  
     e( 16 - 16) =      8.89033  eV     1   --> A_1  D_1  S_1  
     e( 17 - 17) =     10.36138  eV     1   --> A_1  D_1  S_1  
     e( 18 - 18) =     11.82397  eV     1   --> B_2  D_4  S_4  
     e( 19 - 19) =     12.84199  eV     1   --> A_1  D_1  S_1  
     e( 20 - 20) =     16.29551  eV     1   --> B_2  D_4  S_4  
     e( 21 - 21) =     17.59297  eV     1   --> A_1  D_1  S_1  
     e( 22 - 22) =     20.53627  eV     1   --> A_1  D_1  S_1  
     e( 23 - 23) =     21.34945  eV     1   --> B_2  D_4  S_4  
     e( 24 - 24) =     23.11419  eV     1   --> A_1  D_1  S_1  
     e( 25 - 25) =     24.44163  eV     1   --> B_2  D_4  S_4  
     e( 26 - 26) =     24.74845  eV     1   --> A_2  D_2  S_2  
     e( 27 - 27) =     26.68484  eV     1   --> B_2  D_4  S_4  
     e( 28 - 28) =     28.88966  eV     1   --> A_1  D_1  S_1  
     e( 29 - 29) =     28.91246  eV     1   --> B_2  D_4  S_4  
     e( 30 - 30) =     29.39655  eV     1   --> A_1  D_1  S_1  
     e( 31 - 31) =     30.00143  eV     1   --> A_1  D_1  S_1  
     e( 32 - 32) =     30.07686  eV     1   --> B_2  D_4  S_4  
     e( 33 - 33) =     30.62123  eV     1   --> A_2  D_2  S_2  
     e( 34 - 34) =     30.83394  eV     1   --> B_1  D_3  S_3  
     e( 35 - 35) =     31.23625  eV     1   --> B_2  D_4  S_4  
     e( 36 - 36) =     31.31326  eV     1   --> A_1  D_1  S_1  

 **************************************************************************

 **************************************************************************

                    xk=(   0.08750,   0.05052,   0.00000  )

     Band symmetry, C_2v (mm2)  point group:

     e(  1 -  1) =    -21.69099  eV     1   --> A_1  D_1  S_1  
     e(  2 -  2) =     -9.75197  eV     1   --> B_2  D_4  S_4  
     e(  3 -  3) =     -6.12331  eV     1   --> A_1  D_1  S_1  
     e(  4 -  4) =     -5.77968  eV     1   --> B_1  D_3  S_3  
     e(  5 -  5) =      1.13754  eV     1   --> A_1  D_1  S_1  
     e(  6 -  6) =      1.88352  eV     1   --> B_2  D_4  S_4  
     e(  7 -  7) =      2.08738  eV     1   --> A_1  D_1  S_1  
     e(  8 -  8) =      3.04672  eV     1   --> B_2  D_4  S_4  
     e(  9 -  9) =      3.51612  eV     1   --> A_1  D_1  S_1  
     e( 10 - 10) =      5.18751  eV     1   --> B_2  D_4  S_4  
     e( 11 - 11) =      5.81209  eV     1   --> A_1  D_1  S_1  
     e( 12 - 12) =      6.05619  eV     1   --> A_1  D_1  S_1  
     e( 13 - 13) =      6.72508  eV     1   --> B_1  D_3  S_3  
     e( 14 - 14) =      8.15908  eV     1   --> B_2  D_4  S_4  
     e( 15 - 15) =      8.43390  eV     1   --> B_2  D_4  S_4  
     e( 16 - 16) =      8.95631  eV     1   --> A_1  D_1  S_1  
     e( 17 - 17) =     10.45376  eV     1   --> A_1  D_1  S_1  
     e( 18 - 18) =     11.88583  eV     1   --> B_2  D_4  S_4  
     e( 19 - 19) =     12.90732  eV     1   --> A_1  D_1  S_1  
     e( 20 - 20) =     16.35061  eV     1   --> B_2  D_4  S_4  
     e( 21 - 21) =     17.65733  eV     1   --> A_1  D_1  S_1  
     e( 22 - 22) =     20.67633  eV     1   --> A_1  D_1  S_1  
     e( 23 - 23) =     21.35494  eV     1   --> B_2  D_4  S_4  
     e( 24 - 24) =     23.17875  eV     1   --> A_1  D_1  S_1  
     e( 25 - 25) =     24.05490  eV     1   --> B_2  D_4  S_4  
     e( 26 - 26) =     24.47151  eV     1   --> A_2  D_2  S_2  
     e( 27 - 27) =     26.75737  eV     1   --> B_2  D_4  S_4  
     e( 28 - 28) =     28.18392  eV     1   --> A_1  D_1  S_1  
     e( 29 - 29) =     28.90239  eV     1   --> B_2  D_4  S_4  
     e( 30 - 30) =     29.24950  eV     1   --> A_1  D_1  S_1  
     e( 31 - 31) =     29.36803  eV     1   --> B_2  D_4  S_4  
     e( 32 - 32) =     29.45835  eV     1   --> A_1  D_1  S_1  
     e( 33 - 33) =     30.49726  eV     1   --> B_1  D_3  S_3  
     e( 34 - 34) =     30.52282  eV     1   --> B_2  D_4  S_4  
     e( 35 - 35) =     30.59766  eV     1   --> A_1  D_1  S_1  
     e( 36 - 36) =     30.97972  eV     1   --> A_2  D_2  S_2  

 **************************************************************************

 **************************************************************************

                    xk=(   0.10000,   0.05774,   0.00000  )

     Band symmetry, C_2v (mm2)  point group:

     e(  1 -  1) =    -21.63581  eV     1   --> A_1  D_1  S_1  
     e(  2 -  2) =     -9.68612  eV     1   --> B_2  D_4  S_4  
     e(  3 -  3) =     -6.32677  eV     1   --> A_1  D_1  S_1  
     e(  4 -  4) =     -5.88232  eV     1   --> B_1  D_3  S_3  
     e(  5 -  5) =      1.21272  eV     1   --> A_1  D_1  S_1  
     e(  6 -  6) =      1.95969  eV     1   --> B_2  D_4  S_4  
     e(  7 -  7) =      2.16433  eV     1   --> A_1  D_1  S_1  
     e(  8 -  8) =      3.12287  eV     1   --> B_2  D_4  S_4  
     e(  9 -  9) =      3.59227  eV     1   --> A_1  D_1  S_1  
     e( 10 - 10) =      5.26295  eV     1   --> B_2  D_4  S_4  
     e( 11 - 11) =      5.87267  eV     1   --> A_1  D_1  S_1  
     e( 12 - 12) =      6.07822  eV     1   --> A_1  D_1  S_1  
     e( 13 - 13) =      6.94690  eV     1   --> B_1  D_3  S_3  
     e( 14 - 14) =      8.22438  eV     1   --> B_2  D_4  S_4  
     e( 15 - 15) =      8.26237  eV     1   --> B_2  D_4  S_4  
     e( 16 - 16) =      9.03230  eV     1   --> A_1  D_1  S_1  
     e( 17 - 17) =     10.56214  eV     1   --> A_1  D_1  S_1  
     e( 18 - 18) =     11.95705  eV     1   --> B_2  D_4  S_4  
     e( 19 - 19) =     12.98261  eV     1   --> A_1  D_1  S_1  
     e( 20 - 20) =     16.41327  eV     1   --> B_2  D_4  S_4  
     e( 21 - 21) =     17.73138  eV     1   --> A_1  D_1  S_1  
     e( 22 - 22) =     20.83028  eV     1   --> A_1  D_1  S_1  
     e( 23 - 23) =     21.34346  eV     1   --> B_2  D_4  S_4  
     e( 24 - 24) =     23.25359  eV     1   --> A_1  D_1  S_1  
     e( 25 - 25) =     23.68475  eV     1   --> B_2  D_4  S_4  
     e( 26 - 26) =     24.19131  eV     1   --> A_2  D_2  S_2  
     e( 27 - 27) =     26.83187  eV     1   --> B_2  D_4  S_4  
     e( 28 - 28) =     27.48808  eV     1   --> A_1  D_1  S_1  
     e( 29 - 29) =     28.50815  eV     1   --> A_1  D_1  S_1  
     e( 30 - 30) =     28.56372  eV     1   --> B_2  D_4  S_4  
     e( 31 - 31) =     29.00779  eV     1   --> B_2  D_4  S_4  
     e( 32 - 32) =     29.52955  eV     1   --> A_1  D_1  S_1  
     e( 33 - 33) =     29.82280  eV     1   --> B_2  D_4  S_4  
     e( 34 - 34) =     29.87641  eV     1   --> A_1  D_1  S_1  
     e( 35 - 35) =     30.16974  eV     1   --> B_1  D_3  S_3  
     e( 36 - 36) =     31.05261  eV     1   --> A_1  D_1  S_1  

 **************************************************************************

 **************************************************************************

                    xk=(   0.11250,   0.06495,   0.00000  )

     Band symmetry, C_2v (mm2)  point group:

     e(  1 -  1) =    -21.57330  eV     1   --> A_1  D_1  S_1  
     e(  2 -  2) =     -9.61161  eV     1   --> B_2  D_4  S_4  
     e(  3 -  3) =     -6.55000  eV     1   --> A_1  D_1  S_1  
     e(  4 -  4) =     -5.99343  eV     1   --> B_1  D_3  S_3  
     e(  5 -  5) =      1.29792  eV     1   --> A_1  D_1  S_1  
     e(  6 -  6) =      2.04599  eV     1   --> B_2  D_4  S_4  
     e(  7 -  7) =      2.25154  eV     1   --> A_1  D_1  S_1  
     e(  8 -  8) =      3.20915  eV     1   --> B_2  D_4  S_4  
     e(  9 -  9) =      3.67856  eV     1   --> A_1  D_1  S_1  
     e( 10 - 10) =      5.34839  eV     1   --> B_2  D_4  S_4  
     e( 11 - 11) =      5.92836  eV     1   --> A_1  D_1  S_1  
     e( 12 - 12) =      6.11019  eV     1   --> A_1  D_1  S_1  
     e( 13 - 13) =      7.19262  eV     1   --> B_1  D_3  S_3  
     e( 14 - 14) =      8.05110  eV     1   --> B_2  D_4  S_4  
     e( 15 - 15) =      8.31934  eV     1   --> B_2  D_4  S_4  
     e( 16 - 16) =      9.11825  eV     1   --> A_1  D_1  S_1  
     e( 17 - 17) =     10.68648  eV     1   --> A_1  D_1  S_1  
     e( 18 - 18) =     12.03754  eV     1   --> B_2  D_4  S_4  
     e( 19 - 19) =     13.06784  eV     1   --> A_1  D_1  S_1  
     e( 20 - 20) =     16.48301  eV     1   --> B_2  D_4  S_4  
     e( 21 - 21) =     17.81503  eV     1   --> A_1  D_1  S_1  
     e( 22 - 22) =     20.99419  eV     1   --> A_1  D_1  S_1  
     e( 23 - 23) =     21.30150  eV     1   --> B_2  D_4  S_4  
     e( 24 - 24) =     23.33887  eV     1   --> A_1  D_1  S_1  
     e( 25 - 25) =     23.35213  eV     1   --> B_2  D_4  S_4  
     e( 26 - 26) =     23.91136  eV     1   --> A_2  D_2  S_2  
     e( 27 - 27) =     26.80445  eV     1   --> A_1  D_1  S_1  
     e( 28 - 28) =     26.88718  eV     1   --> B_2  D_4  S_4  
     e( 29 - 29) =     27.77739  eV     1   --> A_1  D_1  S_1  
     e( 30 - 30) =     27.89640  eV     1   --> B_2  D_4  S_4  
     e( 31 - 31) =     28.96529  eV     1   --> B_2  D_4  S_4  
     e( 32 - 32) =     29.16129  eV     1   --> A_1  D_1  S_1  
     e( 33 - 33) =     29.17918  eV     1   --> B_2  D_4  S_4  
     e( 34 - 34) =     29.61027  eV     1   --> A_1  D_1  S_1  
     e( 35 - 35) =     29.85157  eV     1   --> B_1  D_3  S_3  
     e( 36 - 36) =     30.72898  eV     1   --> A_1  D_1  S_1  

 **************************************************************************

 **************************************************************************

                    xk=(   0.12500,   0.07217,   0.00000  )

     Band symmetry, C_2v (mm2)  point group:

     e(  1 -  1) =    -21.50349  eV     1   --> A_1  D_1  S_1  
     e(  2 -  2) =     -9.52849  eV     1   --> B_2  D_4  S_4  
     e(  3 -  3) =     -6.79097  eV     1   --> A_1  D_1  S_1  
     e(  4 -  4) =     -6.11160  eV     1   --> B_1  D_3  S_3  
     e(  5 -  5) =      1.39313  eV     1   --> A_1  D_1  S_1  
     e(  6 -  6) =      2.14241  eV     1   --> B_2  D_4  S_4  
     e(  7 -  7) =      2.34901  eV     1   --> A_1  D_1  S_1  
     e(  8 -  8) =      3.30554  eV     1   --> B_2  D_4  S_4  
     e(  9 -  9) =      3.77500  eV     1   --> A_1  D_1  S_1  
     e( 10 - 10) =      5.44378  eV     1   --> B_2  D_4  S_4  
     e( 11 - 11) =      5.96569  eV     1   --> A_1  D_1  S_1  
     e( 12 - 12) =      6.16476  eV     1   --> A_1  D_1  S_1  
     e( 13 - 13) =      7.46063  eV     1   --> B_1  D_3  S_3  
     e( 14 - 14) =      7.83272  eV     1   --> B_2  D_4  S_4  
     e( 15 - 15) =      8.41260  eV     1   --> B_2  D_4  S_4  
     e( 16 - 16) =      9.21413  eV     1   --> A_1  D_1  S_1  
     e( 17 - 17) =     10.82638  eV     1   --> A_1  D_1  S_1  
     e( 18 - 18) =     12.12721  eV     1   --> B_2  D_4  S_4  
     e( 19 - 19) =     13.16296  eV     1   --> A_1  D_1  S_1  
     e( 20 - 20) =     16.55919  eV     1   --> B_2  D_4  S_4  
     e( 21 - 21) =     17.90823  eV     1   --> A_1  D_1  S_1  
     e( 22 - 22) =     21.16293  eV     1   --> A_1  D_1  S_1  
     e( 23 - 23) =     21.21155  eV     1   --> B_2  D_4  S_4  
     e( 24 - 24) =     23.07917  eV     1   --> B_2  D_4  S_4  
     e( 25 - 25) =     23.43467  eV     1   --> A_1  D_1  S_1  
     e( 26 - 26) =     23.63412  eV     1   --> A_2  D_2  S_2  
     e( 27 - 27) =     26.13571  eV     1   --> A_1  D_1  S_1  
     e( 28 - 28) =     26.82773  eV     1   --> B_2  D_4  S_4  
     e( 29 - 29) =     27.05764  eV     1   --> A_1  D_1  S_1  
     e( 30 - 30) =     27.30841  eV     1   --> B_2  D_4  S_4  
     e( 31 - 31) =     28.45566  eV     1   --> A_1  D_1  S_1  
     e( 32 - 32) =     28.45713  eV     1   --> B_2  D_4  S_4  
     e( 33 - 33) =     29.05134  eV     1   --> B_2  D_4  S_4  
     e( 34 - 34) =     29.54289  eV     1   --> B_1  D_3  S_3  
     e( 35 - 35) =     29.69934  eV     1   --> A_1  D_1  S_1  
     e( 36 - 36) =     30.38597  eV     1   --> A_1  D_1  S_1  

 **************************************************************************

 **************************************************************************

                    xk=(   0.13750,   0.07939,   0.00000  )

     Band symmetry, C_2v (mm2)  point group:

     e(  1 -  1) =    -21.42639  eV     1   --> A_1  D_1  S_1  
     e(  2 -  2) =     -9.43681  eV     1   --> B_2  D_4  S_4  
     e(  3 -  3) =     -7.04771  eV     1   --> A_1  D_1  S_1  
     e(  4 -  4) =     -6.23544  eV     1   --> B_1  D_3  S_3  
     e(  5 -  5) =      1.49836  eV     1   --> A_1  D_1  S_1  
     e(  6 -  6) =      2.24893  eV     1   --> B_2  D_4  S_4  
     e(  7 -  7) =      2.45674  eV     1   --> A_1  D_1  S_1  
     e(  8 -  8) =      3.41203  eV     1   --> B_2  D_4  S_4  
     e(  9 -  9) =      3.88157  eV     1   --> A_1  D_1  S_1  
     e( 10 - 10) =      5.54906  eV     1   --> B_2  D_4  S_4  
     e( 11 - 11) =      5.97929  eV     1   --> A_1  D_1  S_1  
     e( 12 - 12) =      6.24683  eV     1   --> A_1  D_1  S_1  
     e( 13 - 13) =      7.59671  eV     1   --> B_2  D_4  S_4  
     e( 14 - 14) =      7.74931  eV     1   --> B_1  D_3  S_3  
     e( 15 - 15) =      8.51602  eV     1   --> B_2  D_4  S_4  
     e( 16 - 16) =      9.31991  eV     1   --> A_1  D_1  S_1  
     e( 17 - 17) =     10.98106  eV     1   --> A_1  D_1  S_1  
     e( 18 - 18) =     12.22595  eV     1   --> B_2  D_4  S_4  
     e( 19 - 19) =     13.26796  eV     1   --> A_1  D_1  S_1  
     e( 20 - 20) =     16.64093  eV     1   --> B_2  D_4  S_4  
     e( 21 - 21) =     18.01088  eV     1   --> A_1  D_1  S_1  
     e( 22 - 22) =     21.05864  eV     1   --> B_2  D_4  S_4  
     e( 23 - 23) =     21.32931  eV     1   --> A_1  D_1  S_1  
     e( 24 - 24) =     22.88349  eV     1   --> B_2  D_4  S_4  
     e( 25 - 25) =     23.36131  eV     1   --> A_2  D_2  S_2  
     e( 26 - 26) =     23.54082  eV     1   --> A_1  D_1  S_1  
     e( 27 - 27) =     25.48587  eV     1   --> A_1  D_1  S_1  
     e( 28 - 28) =     26.34950  eV     1   --> A_1  D_1  S_1  
     e( 29 - 29) =     26.36135  eV     1   --> B_2  D_4  S_4  
     e( 30 - 30) =     27.04697  eV     1   --> B_2  D_4  S_4  
     e( 31 - 31) =     27.76093  eV     1   --> A_1  D_1  S_1  
     e( 32 - 32) =     27.89913  eV     1   --> B_2  D_4  S_4  
     e( 33 - 33) =     29.05316  eV     1   --> B_2  D_4  S_4  
     e( 34 - 34) =     29.24378  eV     1   --> B_1  D_3  S_3  
     e( 35 - 35) =     29.79140  eV     1   --> A_1  D_1  S_1  
     e( 36 - 36) =     29.92217  eV     1   --> A_1  D_1  S_1  

 **************************************************************************

 **************************************************************************

                    xk=(   0.15000,   0.08660,   0.00000  )

     Band symmetry, C_2v (mm2)  point group:

     e(  1 -  1) =    -21.34204  eV     1   --> A_1  D_1  S_1  
     e(  2 -  2) =     -9.33664  eV     1   --> B_2  D_4  S_4  
     e(  3 -  3) =     -7.31834  eV     1   --> A_1  D_1  S_1  
     e(  4 -  4) =     -6.36365  eV     1   --> B_1  D_3  S_3  
     e(  5 -  5) =      1.61359  eV     1   --> A_1  D_1  S_1  
     e(  6 -  6) =      2.36554  eV     1   --> B_2  D_4  S_4  
     e(  7 -  7) =      2.57473  eV     1   --> A_1  D_1  S_1  
     e(  8 -  8) =      3.52859  eV     1   --> B_2  D_4  S_4  
     e(  9 -  9) =      3.99826  eV     1   --> A_1  D_1  S_1  
     e( 10 - 10) =      5.66411  eV     1   --> B_2  D_4  S_4  
     e( 11 - 11) =      5.97542  eV     1   --> A_1  D_1  S_1  
     e( 12 - 12) =      6.35004  eV     1   --> A_1  D_1  S_1  
     e( 13 - 13) =      7.34482  eV     1   --> B_2  D_4  S_4  
     e( 14 - 14) =      8.05713  eV     1   --> B_1  D_3  S_3  
     e( 15 - 15) =      8.62927  eV     1   --> B_2  D_4  S_4  
     e( 16 - 16) =      9.43555  eV     1   --> A_1  D_1  S_1  
     e( 17 - 17) =     11.14939  eV     1   --> A_1  D_1  S_1  
     e( 18 - 18) =     12.33362  eV     1   --> B_2  D_4  S_4  
     e( 19 - 19) =     13.38280  eV     1   --> A_1  D_1  S_1  
     e( 20 - 20) =     16.72703  eV     1   --> B_2  D_4  S_4  
     e( 21 - 21) =     18.12292  eV     1   --> A_1  D_1  S_1  
     e( 22 - 22) =     20.84172  eV     1   --> B_2  D_4  S_4  
     e( 23 - 23) =     21.48255  eV     1   --> A_1  D_1  S_1  
     e( 24 - 24) =     22.76701  eV     1   --> B_2  D_4  S_4  
     e( 25 - 25) =     23.09418  eV     1   --> A_2  D_2  S_2  
     e( 26 - 26) =     23.65606  eV     1   --> A_1  D_1  S_1  
     e( 27 - 27) =     24.86228  eV     1   --> A_1  D_1  S_1  
     e( 28 - 28) =     25.65418  eV     1   --> A_1  D_1  S_1  
     e( 29 - 29) =     25.71881  eV     1   --> B_2  D_4  S_4  
     e( 30 - 30) =     26.72532  eV     1   --> B_2  D_4  S_4  
     e( 31 - 31) =     27.07857  eV     1   --> A_1  D_1  S_1  
     e( 32 - 32) =     27.56504  eV     1   --> B_2  D_4  S_4  
     e( 33 - 33) =     28.95431  eV     1   --> B_1  D_3  S_3  
     e( 34 - 34) =     29.04457  eV     1   --> B_2  D_4  S_4  
     e( 35 - 35) =     29.30164  eV     1   --> A_1  D_1  S_1  
     e( 36 - 36) =     29.35970  eV     1   --> B_2  D_4  S_4  

 **************************************************************************

 **************************************************************************

                    xk=(   0.16250,   0.09382,   0.00000  )

     Band symmetry, C_2v (mm2)  point group:

     e(  1 -  1) =    -21.25043  eV     1   --> A_1  D_1  S_1  
     e(  2 -  2) =     -9.22805  eV     1   --> B_2  D_4  S_4  
     e(  3 -  3) =     -7.60108  eV     1   --> A_1  D_1  S_1  
     e(  4 -  4) =     -6.49499  eV     1   --> B_1  D_3  S_3  
     e(  5 -  5) =      1.73881  eV     1   --> A_1  D_1  S_1  
     e(  6 -  6) =      2.49220  eV     1   --> B_2  D_4  S_4  
     e(  7 -  7) =      2.70298  eV     1   --> A_1  D_1  S_1  
     e(  8 -  8) =      3.65520  eV     1   --> B_2  D_4  S_4  
     e(  9 -  9) =      4.12505  eV     1   --> A_1  D_1  S_1  
     e( 10 - 10) =      5.78865  eV     1   --> B_2  D_4  S_4  
     e( 11 - 11) =      5.95998  eV     1   --> A_1  D_1  S_1  
     e( 12 - 12) =      6.46869  eV     1   --> A_1  D_1  S_1  
     e( 13 - 13) =      7.07871  eV     1   --> B_2  D_4  S_4  
     e( 14 - 14) =      8.38255  eV     1   --> B_1  D_3  S_3  
     e( 15 - 15) =      8.75225  eV     1   --> B_2  D_4  S_4  
     e( 16 - 16) =      9.56105  eV     1   --> A_1  D_1  S_1  
     e( 17 - 17) =     11.32995  eV     1   --> A_1  D_1  S_1  
     e( 18 - 18) =     12.45005  eV     1   --> B_2  D_4  S_4  
     e( 19 - 19) =     13.50744  eV     1   --> A_1  D_1  S_1  
     e( 20 - 20) =     16.81579  eV     1   --> B_2  D_4  S_4  
     e( 21 - 21) =     18.24423  eV     1   --> A_1  D_1  S_1  
     e( 22 - 22) =     20.57621  eV     1   --> B_2  D_4  S_4  
     e( 23 - 23) =     21.60468  eV     1   --> A_1  D_1  S_1  
     e( 24 - 24) =     22.71297  eV     1   --> B_2  D_4  S_4  
     e( 25 - 25) =     22.83366  eV     1   --> A_2  D_2  S_2  
     e( 26 - 26) =     23.77118  eV     1   --> A_1  D_1  S_1  
     e( 27 - 27) =     24.28424  eV     1   --> A_1  D_1  S_1  
     e( 28 - 28) =     24.97468  eV     1   --> A_1  D_1  S_1  
     e( 29 - 29) =     25.06459  eV     1   --> B_2  D_4  S_4  
     e( 30 - 30) =     26.19326  eV     1   --> B_2  D_4  S_4  
     e( 31 - 31) =     26.41065  eV     1   --> A_1  D_1  S_1  
     e( 32 - 32) =     27.40975  eV     1   --> B_2  D_4  S_4  
     e( 33 - 33) =     28.65561  eV     1   --> A_1  D_1  S_1  
     e( 34 - 34) =     28.67451  eV     1   --> B_1  D_3  S_3  
     e( 35 - 35) =     28.81565  eV     1   --> B_2  D_4  S_4  
     e( 36 - 36) =     29.02430  eV     1   --> B_2  D_4  S_4  

 **************************************************************************

 **************************************************************************

                    xk=(   0.17500,   0.10104,   0.00000  )

     Band symmetry, C_2v (mm2)  point group:

     e(  1 -  1) =    -21.15161  eV     1   --> A_1  D_1  S_1  
     e(  2 -  2) =     -9.11112  eV     1   --> B_2  D_4  S_4  
     e(  3 -  3) =     -7.89428  eV     1   --> A_1  D_1  S_1  
     e(  4 -  4) =     -6.62834  eV     1   --> B_1  D_3  S_3  
     e(  5 -  5) =      1.87403  eV     1   --> A_1  D_1  S_1  
     e(  6 -  6) =      2.62888  eV     1   --> B_2  D_4  S_4  
     e(  7 -  7) =      2.84149  eV     1   --> A_1  D_1  S_1  
     e(  8 -  8) =      3.79178  eV     1   --> B_2  D_4  S_4  
     e(  9 -  9) =      4.26190  eV     1   --> A_1  D_1  S_1  
     e( 10 - 10) =      5.92187  eV     1   --> B_2  D_4  S_4  
     e( 11 - 11) =      5.93613  eV     1   --> A_1  D_1  S_1  
     e( 12 - 12) =      6.60010  eV     1   --> A_1  D_1  S_1  
     e( 13 - 13) =      6.80059  eV     1   --> B_2  D_4  S_4  
     e( 14 - 14) =      8.72411  eV     1   --> B_1  D_3  S_3  
     e( 15 - 15) =      8.88490  eV     1   --> B_2  D_4  S_4  
     e( 16 - 16) =      9.69640  eV     1   --> A_1  D_1  S_1  
     e( 17 - 17) =     11.52101  eV     1   --> A_1  D_1  S_1  
     e( 18 - 18) =     12.57504  eV     1   --> B_2  D_4  S_4  
     e( 19 - 19) =     13.64186  eV     1   --> A_1  D_1  S_1  
     e( 20 - 20) =     16.90475  eV     1   --> B_2  D_4  S_4  
     e( 21 - 21) =     18.37471  eV     1   --> A_1  D_1  S_1  
     e( 22 - 22) =     20.28376  eV     1   --> B_2  D_4  S_4  
     e( 23 - 23) =     21.66329  eV     1   --> A_1  D_1  S_1  
     e( 24 - 24) =     22.58045  eV     1   --> A_2  D_2  S_2  
     e( 25 - 25) =     22.69408  eV     1   --> B_2  D_4  S_4  
     e( 26 - 26) =     23.67577  eV     1   --> A_1  D_1  S_1  
     e( 27 - 27) =     23.97331  eV     1   --> A_1  D_1  S_1  
     e( 28 - 28) =     24.32493  eV     1   --> A_1  D_1  S_1  
     e( 29 - 29) =     24.42323  eV     1   --> B_2  D_4  S_4  
     e( 30 - 30) =     25.60108  eV     1   --> B_2  D_4  S_4  
     e( 31 - 31) =     25.76105  eV     1   --> A_1  D_1  S_1  
     e( 32 - 32) =     27.19641  eV     1   --> B_2  D_4  S_4  
     e( 33 - 33) =     28.01193  eV     1   --> A_1  D_1  S_1  
     e( 34 - 34) =     28.40044  eV     1   --> B_2  D_4  S_4  
     e( 35 - 35) =     28.40442  eV     1   --> B_1  D_3  S_3  
     e( 36 - 36) =     28.98833  eV     1   --> B_2  D_4  S_4  

 **************************************************************************

 **************************************************************************

                    xk=(   0.18750,   0.10825,   0.00000  )

     Band symmetry, C_2v (mm2)  point group:

     e(  1 -  1) =    -21.04560  eV     1   --> A_1  D_1  S_1  
     e(  2 -  2) =     -8.98595  eV     1   --> B_2  D_4  S_4  
     e(  3 -  3) =     -8.19640  eV     1   --> A_1  D_1  S_1  
     e(  4 -  4) =     -6.76265  eV     1   --> B_1  D_3  S_3  
     e(  5 -  5) =      2.01921  eV     1   --> A_1  D_1  S_1  
     e(  6 -  6) =      2.77552  eV     1   --> B_2  D_4  S_4  
     e(  7 -  7) =      2.99025  eV     1   --> A_1  D_1  S_1  
     e(  8 -  8) =      3.93825  eV     1   --> B_2  D_4  S_4  
     e(  9 -  9) =      4.40876  eV     1   --> A_1  D_1  S_1  
     e( 10 - 10) =      5.90572  eV     1   --> A_1  D_1  S_1  
     e( 11 - 11) =      6.05980  eV     1   --> B_2  D_4  S_4  
     e( 12 - 12) =      6.51584  eV     1   --> B_2  D_4  S_4  
     e( 13 - 13) =      6.74304  eV     1   --> A_1  D_1  S_1  
     e( 14 - 14) =      9.02716  eV     1   --> B_2  D_4  S_4  
     e( 15 - 15) =      9.08039  eV     1   --> B_1  D_3  S_3  
     e( 16 - 16) =      9.84158  eV     1   --> A_1  D_1  S_1  
     e( 17 - 17) =     11.72062  eV     1   --> A_1  D_1  S_1  
     e( 18 - 18) =     12.70832  eV     1   --> B_2  D_4  S_4  
     e( 19 - 19) =     13.78600  eV     1   --> A_1  D_1  S_1  
     e( 20 - 20) =     16.99027  eV     1   --> B_2  D_4  S_4  
     e( 21 - 21) =     18.51420  eV     1   --> A_1  D_1  S_1  
     e( 22 - 22) =     19.98347  eV     1   --> B_2  D_4  S_4  
     e( 23 - 23) =     21.60371  eV     1   --> A_1  D_1  S_1  
     e( 24 - 24) =     22.33506  eV     1   --> A_2  D_2  S_2  
     e( 25 - 25) =     22.67305  eV     1   --> B_2  D_4  S_4  
     e( 26 - 26) =     23.24121  eV     1   --> A_1  D_1  S_1  
     e( 27 - 27) =     23.68552  eV     1   --> A_1  D_1  S_1  
     e( 28 - 28) =     23.81282  eV     1   --> B_2  D_4  S_4  
     e( 29 - 29) =     24.11797  eV     1   --> A_1  D_1  S_1  
     e( 30 - 30) =     25.01090  eV     1   --> B_2  D_4  S_4  
     e( 31 - 31) =     25.13959  eV     1   --> A_1  D_1  S_1  
     e( 32 - 32) =     26.82250  eV     1   --> B_2  D_4  S_4  
     e( 33 - 33) =     27.37943  eV     1   --> A_1  D_1  S_1  
     e( 34 - 34) =     28.13397  eV     1   --> B_2  D_4  S_4  
     e( 35 - 35) =     28.14405  eV     1   --> B_1  D_3  S_3  
     e( 36 - 36) =     28.95199  eV     1   --> B_2  D_4  S_4  

 **************************************************************************

 **************************************************************************

                    xk=(   0.20000,   0.11547,   0.00000  )

     Band symmetry, C_2v (mm2)  point group:

     e(  1 -  1) =    -20.93243  eV     1   --> A_1  D_1  S_1  
     e(  2 -  2) =     -8.85265  eV     1   --> B_2  D_4  S_4  
     e(  3 -  3) =     -8.50603  eV     1   --> A_1  D_1  S_1  
     e(  4 -  4) =     -6.89697  eV     1   --> B_1  D_3  S_3  
     e(  5 -  5) =      2.17435  eV     1   --> A_1  D_1  S_1  
     e(  6 -  6) =      2.93204  eV     1   --> B_2  D_4  S_4  
     e(  7 -  7) =      3.14927  eV     1   --> A_1  D_1  S_1  
     e(  8 -  8) =      4.09443  eV     1   --> B_2  D_4  S_4  
     e(  9 -  9) =      4.56553  eV     1   --> A_1  D_1  S_1  
     e( 10 - 10) =      5.87012  eV     1   --> A_1  D_1  S_1  
     e( 11 - 11) =      6.12883  eV     1   --> B_2  D_4  S_4  
     e( 12 - 12) =      6.29955  eV     1   --> B_2  D_4  S_4  
     e( 13 - 13) =      6.89691  eV     1   --> A_1  D_1  S_1  
     e( 14 - 14) =      9.17894  eV     1   --> B_2  D_4  S_4  
     e( 15 - 15) =      9.45000  eV     1   --> B_1  D_3  S_3  
     e( 16 - 16) =      9.99660  eV     1   --> A_1  D_1  S_1  
     e( 17 - 17) =     11.92657  eV     1   --> A_1  D_1  S_1  
     e( 18 - 18) =     12.84956  eV     1   --> B_2  D_4  S_4  
     e( 19 - 19) =     13.93983  eV     1   --> A_1  D_1  S_1  
     e( 20 - 20) =     17.06685  eV     1   --> B_2  D_4  S_4  
     e( 21 - 21) =     18.66248  eV     1   --> A_1  D_1  S_1  
     e( 22 - 22) =     19.69049  eV     1   --> B_2  D_4  S_4  
     e( 23 - 23) =     21.37287  eV     1   --> A_1  D_1  S_1  
     e( 24 - 24) =     22.09792  eV     1   --> A_2  D_2  S_2  
     e( 25 - 25) =     22.57019  eV     1   --> B_2  D_4  S_4  
     e( 26 - 26) =     22.77463  eV     1   --> A_1  D_1  S_1  
     e( 27 - 27) =     23.24028  eV     1   --> A_1  D_1  S_1  
     e( 28 - 28) =     23.28578  eV     1   --> B_2  D_4  S_4  
     e( 29 - 29) =     24.22528  eV     1   --> A_1  D_1  S_1  
     e( 30 - 30) =     24.45349  eV     1   --> B_2  D_4  S_4  
     e( 31 - 31) =     24.59517  eV     1   --> A_1  D_1  S_1  
     e( 32 - 32) =     26.33624  eV     1   --> B_2  D_4  S_4  
     e( 33 - 33) =     26.76371  eV     1   --> A_1  D_1  S_1  
     e( 34 - 34) =     27.89341  eV     1   --> B_1  D_3  S_3  
     e( 35 - 35) =     27.93423  eV     1   --> B_2  D_4  S_4  
     e( 36 - 36) =     28.86394  eV     1   --> A_1  D_1  S_1  

 **************************************************************************

 **************************************************************************

                    xk=(   0.21250,   0.12269,   0.00000  )

     Band symmetry, C_2v (mm2)  point group:

     e(  1 -  1) =    -20.81213  eV     1   --> A_1  D_1  S_1  
     e(  2 -  2) =     -8.82187  eV     1   --> A_1  D_1  S_1  
     e(  3 -  3) =     -8.71134  eV     1   --> B_2  D_4  S_4  
     e(  4 -  4) =     -7.03044  eV     1   --> B_1  D_3  S_3  
     e(  5 -  5) =      2.33942  eV     1   --> A_1  D_1  S_1  
     e(  6 -  6) =      3.09828  eV     1   --> B_2  D_4  S_4  
     e(  7 -  7) =      3.31853  eV     1   --> A_1  D_1  S_1  
     e(  8 -  8) =      4.25993  eV     1   --> B_2  D_4  S_4  
     e(  9 -  9) =      4.73206  eV     1   --> A_1  D_1  S_1  
     e( 10 - 10) =      5.83058  eV     1   --> A_1  D_1  S_1  
     e( 11 - 11) =      5.87208  eV     1   --> B_2  D_4  S_4  
     e( 12 - 12) =      6.41038  eV     1   --> B_2  D_4  S_4  
     e( 13 - 13) =      7.06139  eV     1   --> A_1  D_1  S_1  
     e( 14 - 14) =      9.34017  eV     1   --> B_2  D_4  S_4  
     e( 15 - 15) =      9.83160  eV     1   --> B_1  D_3  S_3  
     e( 16 - 16) =     10.16144  eV     1   --> A_1  D_1  S_1  
     e( 17 - 17) =     12.13641  eV     1   --> A_1  D_1  S_1  
     e( 18 - 18) =     12.99833  eV     1   --> B_2  D_4  S_4  
     e( 19 - 19) =     14.10328  eV     1   --> A_1  D_1  S_1  
     e( 20 - 20) =     17.12625  eV     1   --> B_2  D_4  S_4  
     e( 21 - 21) =     18.81918  eV     1   --> A_1  D_1  S_1  
     e( 22 - 22) =     19.41804  eV     1   --> B_2  D_4  S_4  
     e( 23 - 23) =     20.98679  eV     1   --> A_1  D_1  S_1  
     e( 24 - 24) =     21.86933  eV     1   --> A_2  D_2  S_2  
     e( 25 - 25) =     22.19983  eV     1   --> A_1  D_1  S_1  
     e( 26 - 26) =     22.23327  eV     1   --> B_2  D_4  S_4  
     e( 27 - 27) =     22.94248  eV     1   --> B_2  D_4  S_4  
     e( 28 - 28) =     22.98242  eV     1   --> A_1  D_1  S_1  
     e( 29 - 29) =     23.97374  eV     1   --> A_1  D_1  S_1  
     e( 30 - 30) =     23.97533  eV     1   --> B_2  D_4  S_4  
     e( 31 - 31) =     24.50612  eV     1   --> A_1  D_1  S_1  
     e( 32 - 32) =     25.81259  eV     1   --> B_2  D_4  S_4  
     e( 33 - 33) =     26.17304  eV     1   --> A_1  D_1  S_1  
     e( 34 - 34) =     27.65250  eV     1   --> B_1  D_3  S_3  
     e( 35 - 35) =     27.71155  eV     1   --> B_2  D_4  S_4  
     e( 36 - 36) =     28.59899  eV     1   --> A_1  D_1  S_1  

 **************************************************************************

 **************************************************************************

                    xk=(   0.22500,   0.12990,   0.00000  )

     Band symmetry, C_2v (mm2)  point group:

     e(  1 -  1) =    -20.68475  eV     1   --> A_1  D_1  S_1  
     e(  2 -  2) =     -9.14275  eV     1   --> A_1  D_1  S_1  
     e(  3 -  3) =     -8.56218  eV     1   --> B_2  D_4  S_4  
     e(  4 -  4) =     -7.16228  eV     1   --> B_1  D_3  S_3  
     e(  5 -  5) =      2.51441  eV     1   --> A_1  D_1  S_1  
     e(  6 -  6) =      3.27398  eV     1   --> B_2  D_4  S_4  
     e(  7 -  7) =      3.49804  eV     1   --> A_1  D_1  S_1  
     e(  8 -  8) =      4.43366  eV     1   --> B_2  D_4  S_4  
     e(  9 -  9) =      4.90800  eV     1   --> A_1  D_1  S_1  
     e( 10 - 10) =      5.56088  eV     1   --> B_2  D_4  S_4  
     e( 11 - 11) =      5.78838  eV     1   --> A_1  D_1  S_1  
     e( 12 - 12) =      6.57953  eV     1   --> B_2  D_4  S_4  
     e( 13 - 13) =      7.23630  eV     1   --> A_1  D_1  S_1  
     e( 14 - 14) =      9.51074  eV     1   --> B_2  D_4  S_4  
     e( 15 - 15) =     10.22385  eV     1   --> B_1  D_3  S_3  
     e( 16 - 16) =     10.33609  eV     1   --> A_1  D_1  S_1  
     e( 17 - 17) =     12.34734  eV     1   --> A_1  D_1  S_1  
     e( 18 - 18) =     13.15406  eV     1   --> B_2  D_4  S_4  
     e( 19 - 19) =     14.27629  eV     1   --> A_1  D_1  S_1  
     e( 20 - 20) =     17.15660  eV     1   --> B_2  D_4  S_4  
     e( 21 - 21) =     18.98352  eV     1   --> A_1  D_1  S_1  
     e( 22 - 22) =     19.17935  eV     1   --> B_2  D_4  S_4  
     e( 23 - 23) =     20.51325  eV     1   --> A_1  D_1  S_1  
     e( 24 - 24) =     21.58745  eV     1   --> A_1  D_1  S_1  
     e( 25 - 25) =     21.64956  eV     1   --> A_2  D_2  S_2  
     e( 26 - 26) =     21.71318  eV     1   --> B_2  D_4  S_4  
     e( 27 - 27) =     22.64335  eV     1   --> B_2  D_4  S_4  
     e( 28 - 28) =     22.68360  eV     1   --> A_1  D_1  S_1  
     e( 29 - 29) =     23.65208  eV     1   --> A_1  D_1  S_1  
     e( 30 - 30) =     23.65308  eV     1   --> B_2  D_4  S_4  
     e( 31 - 31) =     24.65050  eV     1   --> A_1  D_1  S_1  
     e( 32 - 32) =     25.29777  eV     1   --> B_2  D_4  S_4  
     e( 33 - 33) =     25.62835  eV     1   --> A_1  D_1  S_1  
     e( 34 - 34) =     27.42130  eV     1   --> B_1  D_3  S_3  
     e( 35 - 35) =     27.42605  eV     1   --> B_2  D_4  S_4  
     e( 36 - 36) =     28.28154  eV     1   --> A_1  D_1  S_1  

 **************************************************************************

 **************************************************************************

                    xk=(   0.23750,   0.13712,   0.00000  )

     Band symmetry, C_2v (mm2)  point group:

     e(  1 -  1) =    -20.55032  eV     1   --> A_1  D_1  S_1  
     e(  2 -  2) =     -9.46758  eV     1   --> A_1  D_1  S_1  
     e(  3 -  3) =     -8.40532  eV     1   --> B_2  D_4  S_4  
     e(  4 -  4) =     -7.29181  eV     1   --> B_1  D_3  S_3  
     e(  5 -  5) =      2.69929  eV     1   --> A_1  D_1  S_1  
     e(  6 -  6) =      3.45851  eV     1   --> B_2  D_4  S_4  
     e(  7 -  7) =      3.68779  eV     1   --> A_1  D_1  S_1  
     e(  8 -  8) =      4.61102  eV     1   --> B_2  D_4  S_4  
     e(  9 -  9) =      5.09247  eV     1   --> A_1  D_1  S_1  
     e( 10 - 10) =      5.24596  eV     1   --> B_2  D_4  S_4  
     e( 11 - 11) =      5.74528  eV     1   --> A_1  D_1  S_1  
     e( 12 - 12) =      6.76265  eV     1   --> B_2  D_4  S_4  
     e( 13 - 13) =      7.42149  eV     1   --> A_1  D_1  S_1  
     e( 14 - 14) =      9.69055  eV     1   --> B_2  D_4  S_4  
     e( 15 - 15) =     10.52054  eV     1   --> A_1  D_1  S_1  
     e( 16 - 16) =     10.62540  eV     1   --> B_1  D_3  S_3  
     e( 17 - 17) =     12.55612  eV     1   --> A_1  D_1  S_1  
     e( 18 - 18) =     13.31597  eV     1   --> B_2  D_4  S_4  
     e( 19 - 19) =     14.45876  eV     1   --> A_1  D_1  S_1  
     e( 20 - 20) =     17.14311  eV     1   --> B_2  D_4  S_4  
     e( 21 - 21) =     18.98735  eV     1   --> B_2  D_4  S_4  
     e( 22 - 22) =     19.15283  eV     1   --> A_1  D_1  S_1  
     e( 23 - 23) =     20.00572  eV     1   --> A_1  D_1  S_1  
     e( 24 - 24) =     20.97262  eV     1   --> A_1  D_1  S_1  
     e( 25 - 25) =     21.14982  eV     1   --> B_2  D_4  S_4  
     e( 26 - 26) =     21.43882  eV     1   --> A_2  D_2  S_2  
     e( 27 - 27) =     22.22945  eV     1   --> B_2  D_4  S_4  
     e( 28 - 28) =     22.23468  eV     1   --> A_1  D_1  S_1  
     e( 29 - 29) =     23.47892  eV     1   --> B_2  D_4  S_4  
     e( 30 - 30) =     23.48573  eV     1   --> A_1  D_1  S_1  
     e( 31 - 31) =     24.72745  eV     1   --> A_1  D_1  S_1  
     e( 32 - 32) =     24.83384  eV     1   --> B_2  D_4  S_4  
     e( 33 - 33) =     25.22458  eV     1   --> A_1  D_1  S_1  
     e( 34 - 34) =     27.07226  eV     1   --> B_2  D_4  S_4  
     e( 35 - 35) =     27.19980  eV     1   --> B_1  D_3  S_3  
     e( 36 - 36) =     27.84506  eV     1   --> A_1  D_1  S_1  

 **************************************************************************

 **************************************************************************

                    xk=(   0.25000,   0.14434,   0.00000  )

     Band symmetry, C_2v (mm2)  point group:

     e(  1 -  1) =    -20.40888  eV     1   --> A_1  D_1  S_1  
     e(  2 -  2) =     -9.79537  eV     1   --> A_1  D_1  S_1  
     e(  3 -  3) =     -8.24096  eV     1   --> B_2  D_4  S_4  
     e(  4 -  4) =     -7.41839  eV     1   --> B_1  D_3  S_3  
     e(  5 -  5) =      2.89401  eV     1   --> A_1  D_1  S_1  
     e(  6 -  6) =      3.65021  eV     1   --> B_2  D_4  S_4  
     e(  7 -  7) =      3.88776  eV     1   --> A_1  D_1  S_1  
     e(  8 -  8) =      4.74047  eV     1   --> B_2  D_4  S_4  
     e(  9 -  9) =      4.98466  eV     1   --> B_2  D_4  S_4  
     e( 10 - 10) =      5.28255  eV     1   --> A_1  D_1  S_1  
     e( 11 - 11) =      5.70501  eV     1   --> A_1  D_1  S_1  
     e( 12 - 12) =      6.95673  eV     1   --> B_2  D_4  S_4  
     e( 13 - 13) =      7.61690  eV     1   --> A_1  D_1  S_1  
     e( 14 - 14) =      9.87945  eV     1   --> B_2  D_4  S_4  
     e( 15 - 15) =     10.71475  eV     1   --> A_1  D_1  S_1  
     e( 16 - 16) =     11.03492  eV     1   --> B_1  D_3  S_3  
     e( 17 - 17) =     12.75885  eV     1   --> A_1  D_1  S_1  
     e( 18 - 18) =     13.48298  eV     1   --> B_2  D_4  S_4  
     e( 19 - 19) =     14.65059  eV     1   --> A_1  D_1  S_1  
     e( 20 - 20) =     17.07274  eV     1   --> B_2  D_4  S_4  
     e( 21 - 21) =     18.84906  eV     1   --> B_2  D_4  S_4  
     e( 22 - 22) =     19.29217  eV     1   --> A_1  D_1  S_1  
     e( 23 - 23) =     19.52481  eV     1   --> A_1  D_1  S_1  
     e( 24 - 24) =     20.36470  eV     1   --> A_1  D_1  S_1  
     e( 25 - 25) =     20.58796  eV     1   --> B_2  D_4  S_4  
     e( 26 - 26) =     21.23727  eV     1   --> A_2  D_2  S_2  
     e( 27 - 27) =     21.70586  eV     1   --> A_1  D_1  S_1  
     e( 28 - 28) =     21.74889  eV     1   --> B_2  D_4  S_4  
     e( 29 - 29) =     23.30513  eV     1   --> B_2  D_4  S_4  
     e( 30 - 30) =     23.33737  eV     1   --> A_1  D_1  S_1  
     e( 31 - 31) =     24.48477  eV     1   --> B_2  D_4  S_4  
     e( 32 - 32) =     24.51853  eV     1   --> A_1  D_1  S_1  
     e( 33 - 33) =     25.20695  eV     1   --> A_1  D_1  S_1  
     e( 34 - 34) =     26.66767  eV     1   --> B_2  D_4  S_4  
     e( 35 - 35) =     26.98798  eV     1   --> B_1  D_3  S_3  
     e( 36 - 36) =     27.33582  eV     1   --> A_1  D_1  S_1  

 **************************************************************************

 **************************************************************************

                    xk=(   0.26250,   0.15155,   0.00000  )

     Band symmetry, C_2v (mm2)  point group:

     e(  1 -  1) =    -20.26050  eV     1   --> A_1  D_1  S_1  
     e(  2 -  2) =    -10.12523  eV     1   --> A_1  D_1  S_1  
     e(  3 -  3) =     -8.06933  eV     1   --> B_2  D_4  S_4  
     e(  4 -  4) =     -7.54146  eV     1   --> B_1  D_3  S_3  
     e(  5 -  5) =      3.09854  eV     1   --> A_1  D_1  S_1  
     e(  6 -  6) =      3.84232  eV     1   --> B_2  D_4  S_4  
     e(  7 -  7) =      4.09794  eV     1   --> A_1  D_1  S_1  
     e(  8 -  8) =      4.54058  eV     1   --> B_2  D_4  S_4  
     e(  9 -  9) =      5.06701  eV     1   --> B_2  D_4  S_4  
     e( 10 - 10) =      5.46176  eV     1   --> A_1  D_1  S_1  
     e( 11 - 11) =      5.68477  eV     1   --> A_1  D_1  S_1  
     e( 12 - 12) =      7.16106  eV     1   --> B_2  D_4  S_4  
     e( 13 - 13) =      7.82244  eV     1   --> A_1  D_1  S_1  
     e( 14 - 14) =     10.07726  eV     1   --> B_2  D_4  S_4  
     e( 15 - 15) =     10.91871  eV     1   --> A_1  D_1  S_1  
     e( 16 - 16) =     11.45099  eV     1   --> B_1  D_3  S_3  
     e( 17 - 17) =     12.95070  eV     1   --> A_1  D_1  S_1  
     e( 18 - 18) =     13.65354  eV     1   --> B_2  D_4  S_4  
     e( 19 - 19) =     14.85162  eV     1   --> A_1  D_1  S_1  
     e( 20 - 20) =     16.94184  eV     1   --> B_2  D_4  S_4  
     e( 21 - 21) =     18.75414  eV     1   --> B_2  D_4  S_4  
     e( 22 - 22) =     18.93436  eV     1   --> A_1  D_1  S_1  
     e( 23 - 23) =     19.54538  eV     1   --> A_1  D_1  S_1  
     e( 24 - 24) =     19.77227  eV     1   --> A_1  D_1  S_1  
     e( 25 - 25) =     20.04651  eV     1   --> B_2  D_4  S_4  
     e( 26 - 26) =     21.04504  eV     1   --> A_2  D_2  S_2  
     e( 27 - 27) =     21.15420  eV     1   --> A_1  D_1  S_1  
     e( 28 - 28) =     21.25831  eV     1   --> B_2  D_4  S_4  
     e( 29 - 29) =     23.01246  eV     1   --> B_2  D_4  S_4  
     e( 30 - 30) =     23.07613  eV     1   --> A_1  D_1  S_1  
     e( 31 - 31) =     24.28412  eV     1   --> A_1  D_1  S_1  
     e( 32 - 32) =     24.30357  eV     1   --> B_2  D_4  S_4  
     e( 33 - 33) =     25.36283  eV     1   --> A_1  D_1  S_1  
     e( 34 - 34) =     26.24255  eV     1   --> B_2  D_4  S_4  
     e( 35 - 35) =     26.78580  eV     1   --> B_1  D_3  S_3  
     e( 36 - 36) =     26.82569  eV     1   --> A_1  D_1  S_1  

 **************************************************************************

 **************************************************************************

                    xk=(   0.27500,   0.15877,   0.00000  )

     Band symmetry, C_2v (mm2)  point group:

     e(  1 -  1) =    -20.10522  eV     1   --> A_1  D_1  S_1  
     e(  2 -  2) =    -10.45633  eV     1   --> A_1  D_1  S_1  
     e(  3 -  3) =     -7.89068  eV     1   --> B_2  D_4  S_4  
     e(  4 -  4) =     -7.66052  eV     1   --> B_1  D_3  S_3  
     e(  5 -  5) =      3.31282  eV     1   --> A_1  D_1  S_1  
     e(  6 -  6) =      3.97549  eV     1   --> B_2  D_4  S_4  
     e(  7 -  7) =      4.29451  eV     1   --> B_2  D_4  S_4  
     e(  8 -  8) =      4.31829  eV     1   --> A_1  D_1  S_1  
     e(  9 -  9) =      5.27055  eV     1   --> B_2  D_4  S_4  
     e( 10 - 10) =      5.53844  eV     1   --> A_1  D_1  S_1  
     e( 11 - 11) =      5.77697  eV     1   --> A_1  D_1  S_1  
     e( 12 - 12) =      7.37534  eV     1   --> B_2  D_4  S_4  
     e( 13 - 13) =      8.03806  eV     1   --> A_1  D_1  S_1  
     e( 14 - 14) =     10.28376  eV     1   --> B_2  D_4  S_4  
     e( 15 - 15) =     11.13236  eV     1   --> A_1  D_1  S_1  
     e( 16 - 16) =     11.87215  eV     1   --> B_1  D_3  S_3  
     e( 17 - 17) =     13.12548  eV     1   --> A_1  D_1  S_1  
     e( 18 - 18) =     13.82531  eV     1   --> B_2  D_4  S_4  
     e( 19 - 19) =     15.06165  eV     1   --> A_1  D_1  S_1  
     e( 20 - 20) =     16.75889  eV     1   --> B_2  D_4  S_4  
     e( 21 - 21) =     18.43358  eV     1   --> A_1  D_1  S_1  
     e( 22 - 22) =     18.65987  eV     1   --> B_2  D_4  S_4  
     e( 23 - 23) =     19.17402  eV     1   --> A_1  D_1  S_1  
     e( 24 - 24) =     19.55173  eV     1   --> B_2  D_4  S_4  
     e( 25 - 25) =     19.74223  eV     1   --> A_1  D_1  S_1  
     e( 26 - 26) =     20.60358  eV     1   --> A_1  D_1  S_1  
     e( 27 - 27) =     20.78922  eV     1   --> B_2  D_4  S_4  
     e( 28 - 28) =     20.86226  eV     1   --> A_2  D_2  S_2  
     e( 29 - 29) =     22.61397  eV     1   --> B_2  D_4  S_4  
     e( 30 - 30) =     22.68152  eV     1   --> A_1  D_1  S_1  
     e( 31 - 31) =     24.15910  eV     1   --> A_1  D_1  S_1  
     e( 32 - 32) =     24.23720  eV     1   --> B_2  D_4  S_4  
     e( 33 - 33) =     25.51731  eV     1   --> A_1  D_1  S_1  
     e( 34 - 34) =     25.83502  eV     1   --> B_2  D_4  S_4  
     e( 35 - 35) =     26.36492  eV     1   --> A_1  D_1  S_1  
     e( 36 - 36) =     26.59323  eV     1   --> B_1  D_3  S_3  

 **************************************************************************

 **************************************************************************

                    xk=(   0.28750,   0.16599,   0.00000  )

     Band symmetry, C_2v (mm2)  point group:

     e(  1 -  1) =    -19.94311  eV     1   --> A_1  D_1  S_1  
     e(  2 -  2) =    -10.78793  eV     1   --> A_1  D_1  S_1  
     e(  3 -  3) =     -7.77513  eV     1   --> B_1  D_3  S_3  
     e(  4 -  4) =     -7.70533  eV     1   --> B_2  D_4  S_4  
     e(  5 -  5) =      3.53674  eV     1   --> A_1  D_1  S_1  
     e(  6 -  6) =      3.78660  eV     1   --> B_2  D_4  S_4  
     e(  7 -  7) =      4.36824  eV     1   --> B_2  D_4  S_4  
     e(  8 -  8) =      4.54872  eV     1   --> A_1  D_1  S_1  
     e(  9 -  9) =      5.49366  eV     1   --> B_2  D_4  S_4  
     e( 10 - 10) =      5.51508  eV     1   --> A_1  D_1  S_1  
     e( 11 - 11) =      5.97981  eV     1   --> A_1  D_1  S_1  
     e( 12 - 12) =      7.59943  eV     1   --> B_2  D_4  S_4  
     e( 13 - 13) =      8.26372  eV     1   --> A_1  D_1  S_1  
     e( 14 - 14) =     10.49868  eV     1   --> B_2  D_4  S_4  
     e( 15 - 15) =     11.35565  eV     1   --> A_1  D_1  S_1  
     e( 16 - 16) =     12.29688  eV     1   --> B_1  D_3  S_3  
     e( 17 - 17) =     13.27511  eV     1   --> A_1  D_1  S_1  
     e( 18 - 18) =     13.99454  eV     1   --> B_2  D_4  S_4  
     e( 19 - 19) =     15.28042  eV     1   --> A_1  D_1  S_1  
     e( 20 - 20) =     16.53865  eV     1   --> B_2  D_4  S_4  
     e( 21 - 21) =     17.94318  eV     1   --> A_1  D_1  S_1  
     e( 22 - 22) =     18.47102  eV     1   --> B_2  D_4  S_4  
     e( 23 - 23) =     18.60415  eV     1   --> A_1  D_1  S_1  
     e( 24 - 24) =     19.16301  eV     1   --> B_2  D_4  S_4  
     e( 25 - 25) =     19.89681  eV     1   --> A_1  D_1  S_1  
     e( 26 - 26) =     20.10171  eV     1   --> A_1  D_1  S_1  
     e( 27 - 27) =     20.37021  eV     1   --> B_2  D_4  S_4  
     e( 28 - 28) =     20.68901  eV     1   --> A_2  D_2  S_2  
     e( 29 - 29) =     22.17609  eV     1   --> B_2  D_4  S_4  
     e( 30 - 30) =     22.21511  eV     1   --> A_1  D_1  S_1  
     e( 31 - 31) =     24.07674  eV     1   --> A_1  D_1  S_1  
     e( 32 - 32) =     24.17252  eV     1   --> B_2  D_4  S_4  
     e( 33 - 33) =     25.49987  eV     1   --> B_2  D_4  S_4  
     e( 34 - 34) =     25.53087  eV     1   --> A_1  D_1  S_1  
     e( 35 - 35) =     26.08995  eV     1   --> A_1  D_1  S_1  
     e( 36 - 36) =     26.41022  eV     1   --> B_1  D_3  S_3  

 **************************************************************************

 **************************************************************************

                    xk=(   0.30000,   0.17321,   0.00000  )

     Band symmetry, C_2v (mm2)  point group:

     e(  1 -  1) =    -19.77426  eV     1   --> A_1  D_1  S_1  
     e(  2 -  2) =    -11.11933  eV     1   --> A_1  D_1  S_1  
     e(  3 -  3) =     -7.88490  eV     1   --> B_1  D_3  S_3  
     e(  4 -  4) =     -7.51365  eV     1   --> B_2  D_4  S_4  
     e(  5 -  5) =      3.46266  eV     1   --> B_2  D_4  S_4  
     e(  6 -  6) =      3.77018  eV     1   --> A_1  D_1  S_1  
     e(  7 -  7) =      4.58317  eV     1   --> B_2  D_4  S_4  
     e(  8 -  8) =      4.78903  eV     1   --> A_1  D_1  S_1  
     e(  9 -  9) =      5.47487  eV     1   --> A_1  D_1  S_1  
     e( 10 - 10) =      5.72913  eV     1   --> B_2  D_4  S_4  
     e( 11 - 11) =      6.21095  eV     1   --> A_1  D_1  S_1  
     e( 12 - 12) =      7.83320  eV     1   --> B_2  D_4  S_4  
     e( 13 - 13) =      8.49937  eV     1   --> A_1  D_1  S_1  
     e( 14 - 14) =     10.72165  eV     1   --> B_2  D_4  S_4  
     e( 15 - 15) =     11.58851  eV     1   --> A_1  D_1  S_1  
     e( 16 - 16) =     12.72349  eV     1   --> B_1  D_3  S_3  
     e( 17 - 17) =     13.38911  eV     1   --> A_1  D_1  S_1  
     e( 18 - 18) =     14.15485  eV     1   --> B_2  D_4  S_4  
     e( 19 - 19) =     15.50749  eV     1   --> A_1  D_1  S_1  
     e( 20 - 20) =     16.29624  eV     1   --> B_2  D_4  S_4  
     e( 21 - 21) =     17.47076  eV     1   --> A_1  D_1  S_1  
     e( 22 - 22) =     18.05277  eV     1   --> A_1  D_1  S_1  
     e( 23 - 23) =     18.11390  eV     1   --> B_2  D_4  S_4  
     e( 24 - 24) =     18.90175  eV     1   --> B_2  D_4  S_4  
     e( 25 - 25) =     19.49995  eV     1   --> A_1  D_1  S_1  
     e( 26 - 26) =     20.03824  eV     1   --> B_2  D_4  S_4  
     e( 27 - 27) =     20.17166  eV     1   --> A_1  D_1  S_1  
     e( 28 - 28) =     20.52538  eV     1   --> A_2  D_2  S_2  
     e( 29 - 29) =     21.72534  eV     1   --> A_1  D_1  S_1  
     e( 30 - 30) =     21.74377  eV     1   --> B_2  D_4  S_4  
     e( 31 - 31) =     23.96119  eV     1   --> A_1  D_1  S_1  
     e( 32 - 32) =     24.00697  eV     1   --> B_2  D_4  S_4  
     e( 33 - 33) =     25.28794  eV     1   --> A_1  D_1  S_1  
     e( 34 - 34) =     25.30652  eV     1   --> B_2  D_4  S_4  
     e( 35 - 35) =     26.13722  eV     1   --> A_1  D_1  S_1  
     e( 36 - 36) =     26.23672  eV     1   --> B_1  D_3  S_3  

 **************************************************************************

 **************************************************************************

                    xk=(   0.31250,   0.18042,   0.00000  )

     Band symmetry, C_2v (mm2)  point group:

     e(  1 -  1) =    -19.59873  eV     1   --> A_1  D_1  S_1  
     e(  2 -  2) =    -11.44988  eV     1   --> A_1  D_1  S_1  
     e(  3 -  3) =     -7.98946  eV     1   --> B_1  D_3  S_3  
     e(  4 -  4) =     -7.31607  eV     1   --> B_2  D_4  S_4  
     e(  5 -  5) =      3.12240  eV     1   --> B_2  D_4  S_4  
     e(  6 -  6) =      4.01290  eV     1   --> A_1  D_1  S_1  
     e(  7 -  7) =      4.82321  eV     1   --> B_2  D_4  S_4  
     e(  8 -  8) =      5.03833  eV     1   --> A_1  D_1  S_1  
     e(  9 -  9) =      5.43344  eV     1   --> A_1  D_1  S_1  
     e( 10 - 10) =      5.97547  eV     1   --> B_2  D_4  S_4  
     e( 11 - 11) =      6.45629  eV     1   --> A_1  D_1  S_1  
     e( 12 - 12) =      8.07652  eV     1   --> B_2  D_4  S_4  
     e( 13 - 13) =      8.74496  eV     1   --> A_1  D_1  S_1  
     e( 14 - 14) =     10.95216  eV     1   --> B_2  D_4  S_4  
     e( 15 - 15) =     11.83084  eV     1   --> A_1  D_1  S_1  
     e( 16 - 16) =     13.15019  eV     1   --> B_1  D_3  S_3  
     e( 17 - 17) =     13.45440  eV     1   --> A_1  D_1  S_1  
     e( 18 - 18) =     14.29461  eV     1   --> B_2  D_4  S_4  
     e( 19 - 19) =     15.74205  eV     1   --> A_1  D_1  S_1  
     e( 20 - 20) =     16.04699  eV     1   --> B_2  D_4  S_4  
     e( 21 - 21) =     17.01512  eV     1   --> A_1  D_1  S_1  
     e( 22 - 22) =     17.53072  eV     1   --> A_1  D_1  S_1  
     e( 23 - 23) =     17.66577  eV     1   --> B_2  D_4  S_4  
     e( 24 - 24) =     18.64581  eV     1   --> B_2  D_4  S_4  
     e( 25 - 25) =     18.99187  eV     1   --> A_1  D_1  S_1  
     e( 26 - 26) =     19.81660  eV     1   --> B_2  D_4  S_4  
     e( 27 - 27) =     20.37012  eV     1   --> A_1  D_1  S_1  
     e( 28 - 28) =     20.37143  eV     1   --> A_2  D_2  S_2  
     e( 29 - 29) =     21.24051  eV     1   --> A_1  D_1  S_1  
     e( 30 - 30) =     21.35004  eV     1   --> B_2  D_4  S_4  
     e( 31 - 31) =     23.71225  eV     1   --> B_2  D_4  S_4  
     e( 32 - 32) =     23.75419  eV     1   --> A_1  D_1  S_1  
     e( 33 - 33) =     25.03715  eV     1   --> A_1  D_1  S_1  
     e( 34 - 34) =     25.26730  eV     1   --> B_2  D_4  S_4  
     e( 35 - 35) =     26.07266  eV     1   --> B_1  D_3  S_3  
     e( 36 - 36) =     26.28388  eV     1   --> A_1  D_1  S_1  

 **************************************************************************

 **************************************************************************

                    xk=(   0.32500,   0.18764,   0.00000  )

     Band symmetry, C_2v (mm2)  point group:

     e(  1 -  1) =    -19.41664  eV     1   --> A_1  D_1  S_1  
     e(  2 -  2) =    -11.77900  eV     1   --> A_1  D_1  S_1  
     e(  3 -  3) =     -8.08850  eV     1   --> B_1  D_3  S_3  
     e(  4 -  4) =     -7.11312  eV     1   --> B_2  D_4  S_4  
     e(  5 -  5) =      2.77889  eV     1   --> B_2  D_4  S_4  
     e(  6 -  6) =      4.26441  eV     1   --> A_1  D_1  S_1  
     e(  7 -  7) =      5.07700  eV     1   --> B_2  D_4  S_4  
     e(  8 -  8) =      5.28600  eV     1   --> A_1  D_1  S_1  
     e(  9 -  9) =      5.40486  eV     1   --> A_1  D_1  S_1  
     e( 10 - 10) =      6.23219  eV     1   --> B_2  D_4  S_4  
     e( 11 - 11) =      6.71322  eV     1   --> A_1  D_1  S_1  
     e( 12 - 12) =      8.32928  eV     1   --> B_2  D_4  S_4  
     e( 13 - 13) =      9.00044  eV     1   --> A_1  D_1  S_1  
     e( 14 - 14) =     11.18953  eV     1   --> B_2  D_4  S_4  
     e( 15 - 15) =     12.08248  eV     1   --> A_1  D_1  S_1  
     e( 16 - 16) =     13.45641  eV     1   --> A_1  D_1  S_1  
     e( 17 - 17) =     13.57497  eV     1   --> B_1  D_3  S_3  
     e( 18 - 18) =     14.39171  eV     1   --> B_2  D_4  S_4  
     e( 19 - 19) =     15.81147  eV     1   --> B_2  D_4  S_4  
     e( 20 - 20) =     15.98163  eV     1   --> A_1  D_1  S_1  
     e( 21 - 21) =     16.56544  eV     1   --> A_1  D_1  S_1  
     e( 22 - 22) =     17.05612  eV     1   --> A_1  D_1  S_1  
     e( 23 - 23) =     17.19873  eV     1   --> B_2  D_4  S_4  
     e( 24 - 24) =     18.33564  eV     1   --> B_2  D_4  S_4  
     e( 25 - 25) =     18.50587  eV     1   --> A_1  D_1  S_1  
     e( 26 - 26) =     19.66080  eV     1   --> B_2  D_4  S_4  
     e( 27 - 27) =     20.22722  eV     1   --> A_2  D_2  S_2  
     e( 28 - 28) =     20.50658  eV     1   --> A_1  D_1  S_1  
     e( 29 - 29) =     20.83483  eV     1   --> A_1  D_1  S_1  
     e( 30 - 30) =     21.03230  eV     1   --> B_2  D_4  S_4  
     e( 31 - 31) =     23.34374  eV     1   --> B_2  D_4  S_4  
     e( 32 - 32) =     23.44107  eV     1   --> A_1  D_1  S_1  
     e( 33 - 33) =     24.87517  eV     1   --> A_1  D_1  S_1  
     e( 34 - 34) =     25.31259  eV     1   --> B_2  D_4  S_4  
     e( 35 - 35) =     25.91800  eV     1   --> B_1  D_3  S_3  
     e( 36 - 36) =     26.41930  eV     1   --> A_1  D_1  S_1  

 **************************************************************************

 **************************************************************************

                    xk=(   0.33750,   0.19486,   0.00000  )

     Band symmetry, C_2v (mm2)  point group:

     e(  1 -  1) =    -19.22809  eV     1   --> A_1  D_1  S_1  
     e(  2 -  2) =    -12.10612  eV     1   --> A_1  D_1  S_1  
     e(  3 -  3) =     -8.18174  eV     1   --> B_1  D_3  S_3  
     e(  4 -  4) =     -6.90547  eV     1   --> B_2  D_4  S_4  
     e(  5 -  5) =      2.43603  eV     1   --> B_2  D_4  S_4  
     e(  6 -  6) =      4.52357  eV     1   --> A_1  D_1  S_1  
     e(  7 -  7) =      5.33896  eV     1   --> A_1  D_1  S_1  
     e(  8 -  8) =      5.34214  eV     1   --> B_2  D_4  S_4  
     e(  9 -  9) =      5.58450  eV     1   --> A_1  D_1  S_1  
     e( 10 - 10) =      6.49903  eV     1   --> B_2  D_4  S_4  
     e( 11 - 11) =      6.98092  eV     1   --> A_1  D_1  S_1  
     e( 12 - 12) =      8.59132  eV     1   --> B_2  D_4  S_4  
     e( 13 - 13) =      9.26575  eV     1   --> A_1  D_1  S_1  
     e( 14 - 14) =     11.43270  eV     1   --> B_2  D_4  S_4  
     e( 15 - 15) =     12.34311  eV     1   --> A_1  D_1  S_1  
     e( 16 - 16) =     13.38275  eV     1   --> A_1  D_1  S_1  
     e( 17 - 17) =     13.99562  eV     1   --> B_1  D_3  S_3  
     e( 18 - 18) =     14.40776  eV     1   --> B_2  D_4  S_4  
     e( 19 - 19) =     15.61988  eV     1   --> B_2  D_4  S_4  
     e( 20 - 20) =     16.08066  eV     1   --> A_1  D_1  S_1  
     e( 21 - 21) =     16.24191  eV     1   --> A_1  D_1  S_1  
     e( 22 - 22) =     16.65111  eV     1   --> A_1  D_1  S_1  
     e( 23 - 23) =     16.74166  eV     1   --> B_2  D_4  S_4  
     e( 24 - 24) =     17.99656  eV     1   --> B_2  D_4  S_4  
     e( 25 - 25) =     18.05612  eV     1   --> A_1  D_1  S_1  
     e( 26 - 26) =     19.48413  eV     1   --> B_2  D_4  S_4  
     e( 27 - 27) =     20.09280  eV     1   --> A_2  D_2  S_2  
     e( 28 - 28) =     20.21109  eV     1   --> A_1  D_1  S_1  
     e( 29 - 29) =     20.82799  eV     1   --> B_2  D_4  S_4  
     e( 30 - 30) =     20.88009  eV     1   --> A_1  D_1  S_1  
     e( 31 - 31) =     22.95745  eV     1   --> B_2  D_4  S_4  
     e( 32 - 32) =     23.05830  eV     1   --> A_1  D_1  S_1  
     e( 33 - 33) =     24.77804  eV     1   --> A_1  D_1  S_1  
     e( 34 - 34) =     25.35727  eV     1   --> B_2  D_4  S_4  
     e( 35 - 35) =     25.77266  eV     1   --> B_1  D_3  S_3  
     e( 36 - 36) =     26.37219  eV     1   --> B_2  D_4  S_4  

 **************************************************************************

 **************************************************************************

                    xk=(   0.35000,   0.20207,   0.00000  )

     Band symmetry, C_2v (mm2)  point group:

     e(  1 -  1) =    -19.03324  eV     1   --> A_1  D_1  S_1  
     e(  2 -  2) =    -12.43069  eV     1   --> A_1  D_1  S_1  
     e(  3 -  3) =     -8.26894  eV     1   --> B_1  D_3  S_3  
     e(  4 -  4) =     -6.69391  eV     1   --> B_2  D_4  S_4  
     e(  5 -  5) =      2.09610  eV     1   --> B_2  D_4  S_4  
     e(  6 -  6) =      4.78658  eV     1   --> A_1  D_1  S_1  
     e(  7 -  7) =      5.31183  eV     1   --> A_1  D_1  S_1  
     e(  8 -  8) =      5.61782  eV     1   --> B_2  D_4  S_4  
     e(  9 -  9) =      5.86211  eV     1   --> A_1  D_1  S_1  
     e( 10 - 10) =      6.77586  eV     1   --> B_2  D_4  S_4  
     e( 11 - 11) =      7.25903  eV     1   --> A_1  D_1  S_1  
     e( 12 - 12) =      8.86246  eV     1   --> B_2  D_4  S_4  
     e( 13 - 13) =      9.54084  eV     1   --> A_1  D_1  S_1  
     e( 14 - 14) =     11.68001  eV     1   --> B_2  D_4  S_4  
     e( 15 - 15) =     12.61167  eV     1   --> A_1  D_1  S_1  
     e( 16 - 16) =     13.22908  eV     1   --> A_1  D_1  S_1  
     e( 17 - 17) =     14.30291  eV     1   --> B_2  D_4  S_4  
     e( 18 - 18) =     14.40967  eV     1   --> B_1  D_3  S_3  
     e( 19 - 19) =     15.48920  eV     1   --> B_2  D_4  S_4  
     e( 20 - 20) =     15.60694  eV     1   --> A_1  D_1  S_1  
     e( 21 - 21) =     16.24949  eV     1   --> A_1  D_1  S_1  
     e( 22 - 22) =     16.31952  eV     1   --> B_2  D_4  S_4  
     e( 23 - 23) =     16.52541  eV     1   --> A_1  D_1  S_1  
     e( 24 - 24) =     17.65782  eV     1   --> A_1  D_1  S_1  
     e( 25 - 25) =     17.65920  eV     1   --> B_2  D_4  S_4  
     e( 26 - 26) =     19.24500  eV     1   --> B_2  D_4  S_4  
     e( 27 - 27) =     19.78294  eV     1   --> A_1  D_1  S_1  
     e( 28 - 28) =     19.96820  eV     1   --> A_2  D_2  S_2  
     e( 29 - 29) =     20.73466  eV     1   --> B_2  D_4  S_4  
     e( 30 - 30) =     21.07860  eV     1   --> A_1  D_1  S_1  
     e( 31 - 31) =     22.59146  eV     1   --> B_2  D_4  S_4  
     e( 32 - 32) =     22.65030  eV     1   --> A_1  D_1  S_1  
     e( 33 - 33) =     24.70569  eV     1   --> A_1  D_1  S_1  
     e( 34 - 34) =     25.30114  eV     1   --> B_2  D_4  S_4  
     e( 35 - 35) =     25.63661  eV     1   --> B_1  D_3  S_3  
     e( 36 - 36) =     26.22428  eV     1   --> B_2  D_4  S_4  

 **************************************************************************

 **************************************************************************

                    xk=(   0.36250,   0.20929,   0.00000  )

     Band symmetry, C_2v (mm2)  point group:

     e(  1 -  1) =    -18.83226  eV     1   --> A_1  D_1  S_1  
     e(  2 -  2) =    -12.75219  eV     1   --> A_1  D_1  S_1  
     e(  3 -  3) =     -8.34988  eV     1   --> B_1  D_3  S_3  
     e(  4 -  4) =     -6.47944  eV     1   --> B_2  D_4  S_4  
     e(  5 -  5) =      1.76108  eV     1   --> B_2  D_4  S_4  
     e(  6 -  6) =      5.03255  eV     1   --> A_1  D_1  S_1  
     e(  7 -  7) =      5.31040  eV     1   --> A_1  D_1  S_1  
     e(  8 -  8) =      5.90364  eV     1   --> B_2  D_4  S_4  
     e(  9 -  9) =      6.15319  eV     1   --> A_1  D_1  S_1  
     e( 10 - 10) =      7.06255  eV     1   --> B_2  D_4  S_4  
[...]

     Band symmetry, C_2v (mm2)  point group:

     e(  1 -  1) =    -21.69467  eV     1   --> A_1  D_1  S_1  
     e(  2 -  2) =     -9.75636  eV     1   --> B_1  D_3  S_3  
     e(  3 -  3) =     -6.09204  eV     1   --> B_2  D_4  S_4  
     e(  4 -  4) =     -5.79159  eV     1   --> A_1  D_1  S_1  
     e(  5 -  5) =      1.13254  eV     1   --> A_1  D_1  S_1  
     e(  6 -  6) =      1.87844  eV     1   --> B_1  D_3  S_3  
     e(  7 -  7) =      2.08225  eV     1   --> A_1  D_1  S_1  
     e(  8 -  8) =      3.04165  eV     1   --> B_1  D_3  S_3  
     e(  9 -  9) =      3.51106  eV     1   --> A_1  D_1  S_1  
     e( 10 - 10) =      5.18250  eV     1   --> B_1  D_3  S_3  
     e( 11 - 11) =      5.81173  eV     1   --> A_1  D_1  S_1  
     e( 12 - 12) =      6.10313  eV     1   --> A_1  D_1  S_1  
     e( 13 - 13) =      6.65341  eV     1   --> B_2  D_4  S_4  
     e( 14 - 14) =      8.15456  eV     1   --> B_1  D_3  S_3  
     e( 15 - 15) =      8.44612  eV     1   --> A_2  D_2  S_2  
     e( 16 - 16) =      8.95135  eV     1   --> A_1  D_1  S_1  
     e( 17 - 17) =     10.45259  eV     1   --> B_2  D_4  S_4  
     e( 18 - 18) =     11.88096  eV     1   --> B_1  D_3  S_3  
     e( 19 - 19) =     12.90228  eV     1   --> A_1  D_1  S_1  
     e( 20 - 20) =     16.34604  eV     1   --> B_1  D_3  S_3  
     e( 21 - 21) =     17.65238  eV     1   --> A_1  D_1  S_1  
     e( 22 - 22) =     20.66573  eV     1   --> A_1  D_1  S_1  
     e( 23 - 23) =     21.34762  eV     1   --> B_1  D_3  S_3  
     e( 24 - 24) =     23.17377  eV     1   --> A_1  D_1  S_1  
     e( 25 - 25) =     23.86392  eV     1   --> B_1  D_3  S_3  
     e( 26 - 26) =     24.82033  eV     1   --> A_2  D_2  S_2  
     e( 27 - 27) =     26.67118  eV     1   --> B_1  D_3  S_3  
     e( 28 - 28) =     28.76078  eV     1   --> B_2  D_4  S_4  
     e( 29 - 29) =     28.83478  eV     1   --> B_1  D_3  S_3  
     e( 30 - 30) =     29.14416  eV     1   --> A_1  D_1  S_1  
     e( 31 - 31) =     29.45679  eV     1   --> A_1  D_1  S_1  
     e( 32 - 32) =     30.05056  eV     1   --> B_2  D_4  S_4  
     e( 33 - 33) =     30.05412  eV     1   --> A_2  D_2  S_2  
     e( 34 - 34) =     30.08226  eV     1   --> A_1  D_1  S_1  
     e( 35 - 35) =     30.25885  eV     1   --> B_1  D_3  S_3  
     e( 36 - 36) =     30.99409  eV     1   --> A_2  D_2  S_2  

 **************************************************************************

 **************************************************************************

                    xk=(   0.08333,   0.00000,   0.00000  )

     Band symmetry, C_2v (mm2)  point group:

     e(  1 -  1) =    -21.74867  eV     1   --> A_1  D_1  S_1  
     e(  2 -  2) =     -9.82085  eV     1   --> B_1  D_3  S_3  
     e(  3 -  3) =     -5.89480  eV     1   --> B_2  D_4  S_4  
     e(  4 -  4) =     -5.67697  eV     1   --> A_1  D_1  S_1  
     e(  5 -  5) =      1.05903  eV     1   --> A_1  D_1  S_1  
     e(  6 -  6) =      1.80395  eV     1   --> B_1  D_3  S_3  
     e(  7 -  7) =      2.00701  eV     1   --> A_1  D_1  S_1  
     e(  8 -  8) =      2.96716  eV     1   --> B_1  D_3  S_3  
     e(  9 -  9) =      3.43660  eV     1   --> A_1  D_1  S_1  
     e( 10 - 10) =      5.10868  eV     1   --> B_1  D_3  S_3  
     e( 11 - 11) =      5.74400  eV     1   --> A_1  D_1  S_1  
     e( 12 - 12) =      6.05811  eV     1   --> A_1  D_1  S_1  
     e( 13 - 13) =      6.45998  eV     1   --> B_2  D_4  S_4  
     e( 14 - 14) =      8.08211  eV     1   --> B_1  D_3  S_3  
     e( 15 - 15) =      8.62578  eV     1   --> A_2  D_2  S_2  
     e( 16 - 16) =      8.87682  eV     1   --> A_1  D_1  S_1  
     e( 17 - 17) =     10.34475  eV     1   --> B_2  D_4  S_4  
     e( 18 - 18) =     11.81122  eV     1   --> B_1  D_3  S_3  
     e( 19 - 19) =     12.82857  eV     1   --> A_1  D_1  S_1  
     e( 20 - 20) =     16.28401  eV     1   --> B_1  D_3  S_3  
     e( 21 - 21) =     17.57974  eV     1   --> A_1  D_1  S_1  
     e( 22 - 22) =     20.50676  eV     1   --> A_1  D_1  S_1  
     e( 23 - 23) =     21.34477  eV     1   --> B_1  D_3  S_3  
     e( 24 - 24) =     23.10098  eV     1   --> A_1  D_1  S_1  
     e( 25 - 25) =     24.35479  eV     1   --> B_1  D_3  S_3  
     e( 26 - 26) =     25.05356  eV     1   --> A_2  D_2  S_2  
     e( 27 - 27) =     26.61206  eV     1   --> B_1  D_3  S_3  
     e( 28 - 28) =     28.86889  eV     1   --> B_1  D_3  S_3  
     e( 29 - 29) =     29.38190  eV     1   --> A_1  D_1  S_1  
     e( 30 - 30) =     29.47078  eV     1   --> B_2  D_4  S_4  
     e( 31 - 31) =     29.83635  eV     1   --> A_1  D_1  S_1  
     e( 32 - 32) =     30.57991  eV     1   --> A_2  D_2  S_2  
     e( 33 - 33) =     30.77198  eV     1   --> A_2  D_2  S_2  
     e( 34 - 34) =     30.79595  eV     1   --> B_2  D_4  S_4  
     e( 35 - 35) =     30.82235  eV     1   --> A_1  D_1  S_1  
     e( 36 - 36) =     30.96669  eV     1   --> B_1  D_3  S_3  

 **************************************************************************

 **************************************************************************

                    xk=(   0.06667,   0.00000,   0.00000  )

     Band symmetry, C_2v (mm2)  point group:

     e(  1 -  1) =    -21.79287  eV     1   --> A_1  D_1  S_1  
     e(  2 -  2) =     -9.87368  eV     1   --> B_1  D_3  S_3  
     e(  3 -  3) =     -5.72645  eV     1   --> B_2  D_4  S_4  
     e(  4 -  4) =     -5.58182  eV     1   --> A_1  D_1  S_1  
     e(  5 -  5) =      0.99889  eV     1   --> A_1  D_1  S_1  
     e(  6 -  6) =      1.74298  eV     1   --> B_1  D_3  S_3  
     e(  7 -  7) =      1.94545  eV     1   --> A_1  D_1  S_1  
     e(  8 -  8) =      2.90621  eV     1   --> B_1  D_3  S_3  
     e(  9 -  9) =      3.37568  eV     1   --> A_1  D_1  S_1  
     e( 10 - 10) =      5.04826  eV     1   --> B_1  D_3  S_3  
     e( 11 - 11) =      5.68801  eV     1   --> A_1  D_1  S_1  
     e( 12 - 12) =      6.02272  eV     1   --> A_1  D_1  S_1  
     e( 13 - 13) =      6.29067  eV     1   --> B_2  D_4  S_4  
     e( 14 - 14) =      8.02278  eV     1   --> B_1  D_3  S_3  
     e( 15 - 15) =      8.77562  eV     1   --> A_2  D_2  S_2  
     e( 16 - 16) =      8.81576  eV     1   --> A_1  D_1  S_1  
     e( 17 - 17) =     10.26012  eV     1   --> B_2  D_4  S_4  
     e( 18 - 18) =     11.75399  eV     1   --> B_1  D_3  S_3  
     e( 19 - 19) =     12.76819  eV     1   --> A_1  D_1  S_1  
     e( 20 - 20) =     16.23251  eV     1   --> B_1  D_3  S_3  
     e( 21 - 21) =     17.52012  eV     1   --> A_1  D_1  S_1  
     e( 22 - 22) =     20.37114  eV     1   --> A_1  D_1  S_1  
     e( 23 - 23) =     21.32928  eV     1   --> B_1  D_3  S_3  
     e( 24 - 24) =     23.04169  eV     1   --> A_1  D_1  S_1  
     e( 25 - 25) =     24.83437  eV     1   --> B_1  D_3  S_3  
     e( 26 - 26) =     25.28145  eV     1   --> A_2  D_2  S_2  
     e( 27 - 27) =     26.57503  eV     1   --> B_1  D_3  S_3  
     e( 28 - 28) =     28.90227  eV     1   --> B_1  D_3  S_3  
     e( 29 - 29) =     29.32575  eV     1   --> A_1  D_1  S_1  
     e( 30 - 30) =     30.16153  eV     1   --> A_2  D_2  S_2  
     e( 31 - 31) =     30.19092  eV     1   --> B_2  D_4  S_4  
     e( 32 - 32) =     30.52891  eV     1   --> A_1  D_1  S_1  
     e( 33 - 33) =     31.50077  eV     1   --> A_2  D_2  S_2  
     e( 34 - 34) =     31.55476  eV     1   --> B_2  D_4  S_4  
     e( 35 - 35) =     31.57508  eV     1   --> A_1  D_1  S_1  
     e( 36 - 36) =     31.69824  eV     1   --> B_1  D_3  S_3  

 **************************************************************************

 **************************************************************************

                    xk=(   0.05000,   0.00000,   0.00000  )

     Band symmetry, C_2v (mm2)  point group:

     e(  1 -  1) =    -21.82726  eV     1   --> A_1  D_1  S_1  
     e(  2 -  2) =     -9.91480  eV     1   --> B_1  D_3  S_3  
     e(  3 -  3) =     -5.59075  eV     1   --> B_2  D_4  S_4  
     e(  4 -  4) =     -5.50695  eV     1   --> A_1  D_1  S_1  
     e(  5 -  5) =      0.95212  eV     1   --> A_1  D_1  S_1  
     e(  6 -  6) =      1.69556  eV     1   --> B_1  D_3  S_3  
     e(  7 -  7) =      1.89757  eV     1   --> A_1  D_1  S_1  
     e(  8 -  8) =      2.85880  eV     1   --> B_1  D_3  S_3  
     e(  9 -  9) =      3.32830  eV     1   --> A_1  D_1  S_1  
     e( 10 - 10) =      5.00125  eV     1   --> B_1  D_3  S_3  
     e( 11 - 11) =      5.64417  eV     1   --> A_1  D_1  S_1  
     e( 12 - 12) =      5.99609  eV     1   --> A_1  D_1  S_1  
     e( 13 - 13) =      6.15168  eV     1   --> B_2  D_4  S_4  
     e( 14 - 14) =      7.97659  eV     1   --> B_1  D_3  S_3  
     e( 15 - 15) =      8.76821  eV     1   --> A_1  D_1  S_1  
     e( 16 - 16) =      8.89399  eV     1   --> A_2  D_2  S_2  
     e( 17 - 17) =     10.19655  eV     1   --> B_2  D_4  S_4  
     e( 18 - 18) =     11.70938  eV     1   --> B_1  D_3  S_3  
     e( 19 - 19) =     12.72117  eV     1   --> A_1  D_1  S_1  
     e( 20 - 20) =     16.19204  eV     1   --> B_1  D_3  S_3  
     e( 21 - 21) =     17.47362  eV     1   --> A_1  D_1  S_1  
     e( 22 - 22) =     20.26228  eV     1   --> A_1  D_1  S_1  
     e( 23 - 23) =     21.31115  eV     1   --> B_1  D_3  S_3  
     e( 24 - 24) =     22.99573  eV     1   --> A_1  D_1  S_1  
     e( 25 - 25) =     25.26186  eV     1   --> B_1  D_3  S_3  
     e( 26 - 26) =     25.49370  eV     1   --> A_2  D_2  S_2  
     e( 27 - 27) =     26.56665  eV     1   --> B_1  D_3  S_3  
     e( 28 - 28) =     28.95841  eV     1   --> B_1  D_3  S_3  
     e( 29 - 29) =     29.28143  eV     1   --> A_1  D_1  S_1  
     e( 30 - 30) =     29.79090  eV     1   --> A_2  D_2  S_2  
     e( 31 - 31) =     30.91865  eV     1   --> B_2  D_4  S_4  
     e( 32 - 32) =     31.22128  eV     1   --> A_1  D_1  S_1  
     e( 33 - 33) =     31.67346  eV     1   --> B_1  D_3  S_3  
     e( 34 - 34) =     32.23755  eV     1   --> A_2  D_2  S_2  
     e( 35 - 35) =     32.32651  eV     1   --> B_2  D_4  S_4  
     e( 36 - 36) =     32.33760  eV     1   --> A_1  D_1  S_1  

 **************************************************************************

 **************************************************************************

                    xk=(   0.03333,   0.00000,   0.00000  )

     Band symmetry, C_2v (mm2)  point group:

     e(  1 -  1) =    -21.85184  eV     1   --> A_1  D_1  S_1  
     e(  2 -  2) =     -9.94421  eV     1   --> B_1  D_3  S_3  
     e(  3 -  3) =     -5.49107  eV     1   --> B_2  D_4  S_4  
     e(  4 -  4) =     -5.45300  eV     1   --> A_1  D_1  S_1  
     e(  5 -  5) =      0.91872  eV     1   --> A_1  D_1  S_1  
     e(  6 -  6) =      1.66168  eV     1   --> B_1  D_3  S_3  
     e(  7 -  7) =      1.86338  eV     1   --> A_1  D_1  S_1  
     e(  8 -  8) =      2.82493  eV     1   --> B_1  D_3  S_3  
     e(  9 -  9) =      3.29446  eV     1   --> A_1  D_1  S_1  
     e( 10 - 10) =      4.96767  eV     1   --> B_1  D_3  S_3  
     e( 11 - 11) =      5.61271  eV     1   --> A_1  D_1  S_1  
     e( 12 - 12) =      5.97755  eV     1   --> A_1  D_1  S_1  
     e( 13 - 13) =      6.04828  eV     1   --> B_2  D_4  S_4  
     e( 14 - 14) =      7.94359  eV     1   --> B_1  D_3  S_3  
     e( 15 - 15) =      8.73422  eV     1   --> A_1  D_1  S_1  
     e( 16 - 16) =      8.97953  eV     1   --> A_2  D_2  S_2  
     e( 17 - 17) =     10.15234  eV     1   --> B_2  D_4  S_4  
     e( 18 - 18) =     11.67747  eV     1   --> B_1  D_3  S_3  
     e( 19 - 19) =     12.68756  eV     1   --> A_1  D_1  S_1  
     e( 20 - 20) =     16.16292  eV     1   --> B_1  D_3  S_3  
     e( 21 - 21) =     17.44033  eV     1   --> A_1  D_1  S_1  
     e( 22 - 22) =     20.18275  eV     1   --> A_1  D_1  S_1  
     e( 23 - 23) =     21.29561  eV     1   --> B_1  D_3  S_3  
     e( 24 - 24) =     22.96298  eV     1   --> A_1  D_1  S_1  
     e( 25 - 25) =     25.58977  eV     1   --> B_1  D_3  S_3  
     e( 26 - 26) =     25.67334  eV     1   --> A_2  D_2  S_2  
     e( 27 - 27) =     26.59338  eV     1   --> B_1  D_3  S_3  
     e( 28 - 28) =     29.05004  eV     1   --> B_1  D_3  S_3  
     e( 29 - 29) =     29.24970  eV     1   --> A_1  D_1  S_1  
     e( 30 - 30) =     29.49366  eV     1   --> A_2  D_2  S_2  
     e( 31 - 31) =     31.14836  eV     1   --> B_1  D_3  S_3  
     e( 32 - 32) =     31.64769  eV     1   --> B_2  D_4  S_4  
     e( 33 - 33) =     31.89592  eV     1   --> A_1  D_1  S_1  
     e( 34 - 34) =     32.97125  eV     1   --> A_2  D_2  S_2  
     e( 35 - 35) =     33.08755  eV     1   --> A_1  D_1  S_1  
     e( 36 - 36) =     33.10884  eV     1   --> B_2  D_4  S_4  

 **************************************************************************

 **************************************************************************

                    xk=(   0.01667,   0.00000,   0.00000  )

     Band symmetry, C_2v (mm2)  point group:

     e(  1 -  1) =    -21.86658  eV     1   --> A_1  D_1  S_1  
     e(  2 -  2) =     -9.96185  eV     1   --> B_1  D_3  S_3  
     e(  3 -  3) =     -5.43009  eV     1   --> B_2  D_4  S_4  
     e(  4 -  4) =     -5.42045  eV     1   --> A_1  D_1  S_1  
     e(  5 -  5) =      0.89868  eV     1   --> A_1  D_1  S_1  
     e(  6 -  6) =      1.64135  eV     1   --> B_1  D_3  S_3  
     e(  7 -  7) =      1.84286  eV     1   --> A_1  D_1  S_1  
     e(  8 -  8) =      2.80461  eV     1   --> B_1  D_3  S_3  
     e(  9 -  9) =      3.27416  eV     1   --> A_1  D_1  S_1  
     e( 10 - 10) =      4.94752  eV     1   --> B_1  D_3  S_3  
     e( 11 - 11) =      5.59378  eV     1   --> A_1  D_1  S_1  
     e( 12 - 12) =      5.96662  eV     1   --> A_1  D_1  S_1  
     e( 13 - 13) =      5.98454  eV     1   --> B_2  D_4  S_4  
     e( 14 - 14) =      7.92377  eV     1   --> B_1  D_3  S_3  
     e( 15 - 15) =      8.71380  eV     1   --> A_1  D_1  S_1  
     e( 16 - 16) =      9.03127  eV     1   --> A_2  D_2  S_2  
     e( 17 - 17) =     10.12629  eV     1   --> B_2  D_4  S_4  
     e( 18 - 18) =     11.65831  eV     1   --> B_1  D_3  S_3  
     e( 19 - 19) =     12.66738  eV     1   --> A_1  D_1  S_1  
     e( 20 - 20) =     16.14537  eV     1   --> B_1  D_3  S_3  
     e( 21 - 21) =     17.42033  eV     1   --> A_1  D_1  S_1  
     e( 22 - 22) =     20.13434  eV     1   --> A_1  D_1  S_1  
     e( 23 - 23) =     21.28539  eV     1   --> B_1  D_3  S_3  
     e( 24 - 24) =     22.94335  eV     1   --> A_1  D_1  S_1  
     e( 25 - 25) =     25.78203  eV     1   --> B_1  D_3  S_3  
     e( 26 - 26) =     25.79711  eV     1   --> A_2  D_2  S_2  
     e( 27 - 27) =     26.64314  eV     1   --> B_1  D_3  S_3  
     e( 28 - 28) =     29.16535  eV     1   --> B_1  D_3  S_3  
     e( 29 - 29) =     29.23066  eV     1   --> A_1  D_1  S_1  
     e( 30 - 30) =     29.29768  eV     1   --> A_2  D_2  S_2  
     e( 31 - 31) =     30.73721  eV     1   --> B_1  D_3  S_3  
     e( 32 - 32) =     32.35466  eV     1   --> B_2  D_4  S_4  
     e( 33 - 33) =     32.50232  eV     1   --> A_1  D_1  S_1  
     e( 34 - 34) =     33.36608  eV     1   --> A_1  D_1  S_1  
     e( 35 - 35) =     33.45894  eV     1   --> B_2  D_4  S_4  
     e( 36 - 36) =     33.65787  eV     1   --> A_2  D_2  S_2  

 **************************************************************************

 **************************************************************************

                    xk=(   0.00000,   0.00000,   0.00000  )

     point group D_6h(6/mmm)
     there are 12 classes
     the character table:

       E     2C6   2C3   C2    3C2'  3C2'' i     2S3   2S6   s_h   3s_d  3s_v 
A_1g   1.00  1.00  1.00  1.00  1.00  1.00  1.00  1.00  1.00  1.00  1.00  1.00
A_2g   1.00  1.00  1.00  1.00 -1.00 -1.00  1.00  1.00  1.00  1.00 -1.00 -1.00
B_1g   1.00 -1.00  1.00 -1.00  1.00 -1.00  1.00 -1.00  1.00 -1.00  1.00 -1.00
B_2g   1.00 -1.00  1.00 -1.00 -1.00  1.00  1.00 -1.00  1.00 -1.00 -1.00  1.00
E_1g   2.00  1.00 -1.00 -2.00  0.00  0.00  2.00  1.00 -1.00 -2.00  0.00  0.00
E_2g   2.00 -1.00 -1.00  2.00  0.00  0.00  2.00 -1.00 -1.00  2.00  0.00  0.00
A_1u   1.00  1.00  1.00  1.00  1.00  1.00 -1.00 -1.00 -1.00 -1.00 -1.00 -1.00
A_2u   1.00  1.00  1.00  1.00 -1.00 -1.00 -1.00 -1.00 -1.00 -1.00  1.00  1.00
B_1u   1.00 -1.00  1.00 -1.00  1.00 -1.00 -1.00  1.00 -1.00  1.00 -1.00  1.00
B_2u   1.00 -1.00  1.00 -1.00 -1.00  1.00 -1.00  1.00 -1.00  1.00  1.00 -1.00
E_1u   2.00  1.00 -1.00 -2.00  0.00  0.00 -2.00 -1.00  1.00  2.00  0.00  0.00
E_2u   2.00 -1.00 -1.00  2.00  0.00  0.00 -2.00  1.00  1.00 -2.00  0.00  0.00

     the symmetry operations in each class and the name of the first element:

     E        1
                                                                 
     2C6      5    6
                                                                 
     2C3      7    8
                                                                 
     C2       2
                                                                 
     3C2'     4   12   11
                                                                 
     3C2''    3    9   10
                                                                 
     i       13
                                                                 
     2S3     17   18
                                                                 
     2S6     19   20
                                                                 
     s_h     14
                                                                 
     3s_d    16   24   23
                                                                 
     3s_v    15   21   22
                                                                 

     Band symmetry, D_6h(6/mmm) point group:

     e(  1 -  1) =    -21.87150  eV     1   --> A_1g           
     e(  2 -  2) =     -9.96774  eV     1   --> A_2u           
     e(  3 -  4) =     -5.40956  eV     2   --> E_2g           
     e(  5 -  5) =      0.89200  eV     1   --> A_1g           
     e(  6 -  6) =      1.63457  eV     1   --> A_2u           
     e(  7 -  7) =      1.83602  eV     1   --> A_1g           
     e(  8 -  8) =      2.79783  eV     1   --> A_2u           
     e(  9 -  9) =      3.26740  eV     1   --> A_1g           
     e( 10 - 10) =      4.94080  eV     1   --> A_2u           
     e( 11 - 11) =      5.58746  eV     1   --> A_1g           
     e( 12 - 13) =      5.96300  eV     2   --> E_1u           
     e( 14 - 14) =      7.91717  eV     1   --> A_2u           
     e( 15 - 15) =      8.70700  eV     1   --> A_1g           
     e( 16 - 16) =      9.04858  eV     1   --> B_1g           
     e( 17 - 17) =     10.11768  eV     1   --> B_2u           
     e( 18 - 18) =     11.65192  eV     1   --> A_2u           
     e( 19 - 19) =     12.66065  eV     1   --> A_1g           
     e( 20 - 20) =     16.13951  eV     1   --> A_2u           
     e( 21 - 21) =     17.41366  eV     1   --> A_1g           
     e( 22 - 22) =     20.11809  eV     1   --> A_1g           
     e( 23 - 23) =     21.28185  eV     1   --> A_2u           
     e( 24 - 24) =     22.93682  eV     1   --> A_1g           
     e( 25 - 26) =     25.84180  eV     2   --> E_2u           
     e( 27 - 27) =     26.66990  eV     1   --> A_2u           
     e( 28 - 28) =     29.22431  eV     1   --> A_1g           
     e( 29 - 30) =     29.22866  eV     2   --> E_1g           
     e( 31 - 31) =     30.56870  eV     1   --> A_2u           
     e( 32 - 33) =     32.82420  eV     2   --> E_2g           
     e( 34 - 35) =     33.32525  eV     2   --> E_1u           
     e( 36 - 36) =     33.81681  eV     1   --> B_2u           

 **************************************************************************
 
     BANDS        :     47.26s CPU   1m 1.70s WALL

 
   This run was terminated on:  12:51:10  25Jun2022            

=------------------------------------------------------------------------------=
   JOB DONE.
=------------------------------------------------------------------------------=
