
     Program PWSCF v.7.0 starts on 25Jun2022 at 12:49: 8 

     This program is part of the open-source Quantum ESPRESSO suite
     for quantum simulation of materials; please cite
         "P. Giannozzi et al., J. Phys.:Condens. Matter 21 395502 (2009);
         "P. Giannozzi et al., J. Phys.:Condens. Matter 29 465901 (2017);
         "P. Giannozzi et al., J. Chem. Phys. 152 154105 (2020);
          URL http://www.quantum-espresso.org", 
     in publications or presentations arising from this work. More details at
     http://www.quantum-espresso.org/quote

     Parallel version (MPI & OpenMP), running on      28 processor cores
     Number of MPI processes:                28
     Threads/MPI process:                     1

     MPI processes distributed on     1 nodes
     K-points division:     npool     =       7
     R & G space division:  proc/nbgrp/npool/nimage =       4
     54567 MiB available memory on the printing compute node when the environment starts
 
     Waiting for input...
     Reading input from standard input

     Current dimensions of program PWSCF are:
     Max number of different atomic species (ntypx) = 10
     Max number of k-points (npk) =  40000
     Max angular momentum in pseudopotentials (lmaxx) =  4
     Message from routine iosys:
     wrong startingpot: use default (2)

     Atomic positions and unit cell read from directory:
     ./graphene.save/
     Atomic positions from file used, from input discarded
 
     file C.pbe-n-kjpaw_psl.1.0.0.UPF: wavefunction(s)  2S 2P renormalized

     Subspace diagonalization in iterative solution of the eigenvalue problem:
     one sub-group per band group will be used
     scalapack distributed-memory algorithm (size of sub-group:  2*  2 procs)

 
     Parallelization info
     --------------------
     sticks:   dense  smooth     PW     G-vecs:    dense   smooth      PW
     Min         180     118     37                31568    17152    2875
     Max         181     119     38                31589    17183    2888
     Sum         721     475    151               126311    68693   11537
 
     Using Slab Decomposition
 


     bravais-lattice index     =            4
     lattice parameter (alat)  =       4.6623  a.u.
     unit-cell volume          =     711.4836 (a.u.)^3
     number of atoms/cell      =            2
     number of atomic types    =            1
     number of electrons       =         8.00
     number of Kohn-Sham states=           36
     kinetic-energy cutoff     =      80.0000  Ry
     charge density cutoff     =     480.0000  Ry
     Exchange-correlation= SLA  PW   PBX  PBC
                           (   1   4   3   4   0   0   0)

     celldm(1)=   4.662327  celldm(2)=   0.000000  celldm(3)=   8.106365
     celldm(4)=   0.000000  celldm(5)=   0.000000  celldm(6)=   0.000000

     crystal axes: (cart. coord. in units of alat)
               a(1) = (   1.000000   0.000000   0.000000 )  
               a(2) = (  -0.500000   0.866025   0.000000 )  
               a(3) = (   0.000000   0.000000   8.106365 )  

     reciprocal axes: (cart. coord. in units 2 pi/alat)
               b(1) = (  1.000000  0.577350  0.000000 )  
               b(2) = (  0.000000  1.154701  0.000000 )  
               b(3) = (  0.000000  0.000000  0.123360 )  

Write cell and positions for Wanner90.x
begin unit_cell_cart
Bohr
        4.6623268   0.0000000   0.0000000
       -2.3311634   4.0376934   0.0000000
        0.0000000   0.0000000  37.7945225
end unit_cell_cart

begin atoms_cart
Bohr
        C          -0.0000000   2.6917956  18.8972612
        C           2.3311634   1.3458978  18.8972612
end atoms_cart

     PseudoPot. # 1 for C  read from file:
     ./pseudo/C.pbe-n-kjpaw_psl.1.0.0.UPF
     MD5 check sum: 6fec8efd722f5d988670a8dc528584a2
     Pseudo is Projector augmented-wave + core cor, Zval =  4.0
     Generated using "atomic" code by A. Dal Corso  v.5.1.2
     Shape of augmentation charge: PSQ
     Using radial grid of 1073 points,  4 beta functions with: 
                l(1) =   0
                l(2) =   0
                l(3) =   1
                l(4) =   1
     Q(r) pseudized with 0 coefficients 


     atomic species   valence    mass     pseudopotential
        C              4.00    12.01070     C ( 1.00)

     24 Sym. Ops., with inversion, found


                                    s                        frac. trans.

      isym =  1     identity                                     

 cryst.   s( 1) = (     1          0          0      )
                  (     0          1          0      )
                  (     0          0          1      )

 cart.    s( 1) = (  1.0000000  0.0000000  0.0000000 )
                  (  0.0000000  1.0000000  0.0000000 )
                  (  0.0000000  0.0000000  1.0000000 )


      isym =  2     180 deg rotation - cart. axis [0,0,1]        

 cryst.   s( 2) = (    -1          0          0      )
                  (     0         -1          0      )
                  (     0          0          1      )

 cart.    s( 2) = ( -1.0000000  0.0000000  0.0000000 )
                  (  0.0000000 -1.0000000  0.0000000 )
                  (  0.0000000  0.0000000  1.0000000 )


      isym =  3     180 deg rotation - cart. axis [0,1,0]        

 cryst.   s( 3) = (    -1          0          0      )
                  (     1          1          0      )
                  (     0          0         -1      )

 cart.    s( 3) = ( -1.0000000  0.0000000  0.0000000 )
                  (  0.0000000  1.0000000  0.0000000 )
                  (  0.0000000  0.0000000 -1.0000000 )


      isym =  4     180 deg rotation - cart. axis [1,0,0]        

 cryst.   s( 4) = (     1          0          0      )
                  (    -1         -1          0      )
                  (     0          0         -1      )

 cart.    s( 4) = (  1.0000000  0.0000000  0.0000000 )
                  (  0.0000000 -1.0000000  0.0000000 )
                  (  0.0000000  0.0000000 -1.0000000 )


      isym =  5      60 deg rotation - cryst. axis [0,0,1]       

 cryst.   s( 5) = (     1          1          0      )
                  (    -1          0          0      )
                  (     0          0          1      )

 cart.    s( 5) = (  0.5000000 -0.8660254  0.0000000 )
                  (  0.8660254  0.5000000  0.0000000 )
                  (  0.0000000  0.0000000  1.0000000 )


      isym =  6      60 deg rotation - cryst. axis [0,0,-1]      

 cryst.   s( 6) = (     0         -1          0      )
                  (     1          1          0      )
                  (     0          0          1      )

 cart.    s( 6) = (  0.5000000  0.8660254  0.0000000 )
                  ( -0.8660254  0.5000000  0.0000000 )
                  (  0.0000000  0.0000000  1.0000000 )


      isym =  7     120 deg rotation - cryst. axis [0,0,1]       

 cryst.   s( 7) = (     0          1          0      )
                  (    -1         -1          0      )
                  (     0          0          1      )

 cart.    s( 7) = ( -0.5000000 -0.8660254  0.0000000 )
                  (  0.8660254 -0.5000000  0.0000000 )
                  (  0.0000000  0.0000000  1.0000000 )


      isym =  8     120 deg rotation - cryst. axis [0,0,-1]      

 cryst.   s( 8) = (    -1         -1          0      )
                  (     1          0          0      )
                  (     0          0          1      )

 cart.    s( 8) = ( -0.5000000  0.8660254  0.0000000 )
                  ( -0.8660254 -0.5000000  0.0000000 )
                  (  0.0000000  0.0000000  1.0000000 )


      isym =  9     180 deg rotation - cryst. axis [1,-1,0]      

 cryst.   s( 9) = (     0         -1          0      )
                  (    -1          0          0      )
                  (     0          0         -1      )

 cart.    s( 9) = (  0.5000000 -0.8660254  0.0000000 )
                  ( -0.8660254 -0.5000000  0.0000000 )
                  (  0.0000000  0.0000000 -1.0000000 )


      isym = 10     180 deg rotation - cryst. axis [2,1,0]       

 cryst.   s(10) = (     1          1          0      )
                  (     0         -1          0      )
                  (     0          0         -1      )

 cart.    s(10) = (  0.5000000  0.8660254  0.0000000 )
                  (  0.8660254 -0.5000000  0.0000000 )
                  (  0.0000000  0.0000000 -1.0000000 )


      isym = 11     180 deg rotation - cryst. axis [0,1,0]       

 cryst.   s(11) = (    -1         -1          0      )
                  (     0          1          0      )
                  (     0          0         -1      )

 cart.    s(11) = ( -0.5000000 -0.8660254  0.0000000 )
                  ( -0.8660254  0.5000000  0.0000000 )
                  (  0.0000000  0.0000000 -1.0000000 )


      isym = 12     180 deg rotation - cryst. axis [1,1,0]       

 cryst.   s(12) = (     0          1          0      )
                  (     1          0          0      )
                  (     0          0         -1      )

 cart.    s(12) = ( -0.5000000  0.8660254  0.0000000 )
                  (  0.8660254  0.5000000  0.0000000 )
                  (  0.0000000  0.0000000 -1.0000000 )


      isym = 13     inversion                                    

 cryst.   s(13) = (    -1          0          0      )
                  (     0         -1          0      )
                  (     0          0         -1      )

 cart.    s(13) = ( -1.0000000  0.0000000  0.0000000 )
                  (  0.0000000 -1.0000000  0.0000000 )
                  (  0.0000000  0.0000000 -1.0000000 )


      isym = 14     inv. 180 deg rotation - cart. axis [0,0,1]   

 cryst.   s(14) = (     1          0          0      )
                  (     0          1          0      )
                  (     0          0         -1      )

 cart.    s(14) = (  1.0000000  0.0000000  0.0000000 )
                  (  0.0000000  1.0000000  0.0000000 )
                  (  0.0000000  0.0000000 -1.0000000 )


      isym = 15     inv. 180 deg rotation - cart. axis [0,1,0]   

 cryst.   s(15) = (     1          0          0      )
                  (    -1         -1          0      )
                  (     0          0          1      )

 cart.    s(15) = (  1.0000000  0.0000000  0.0000000 )
                  (  0.0000000 -1.0000000  0.0000000 )
                  (  0.0000000  0.0000000  1.0000000 )


      isym = 16     inv. 180 deg rotation - cart. axis [1,0,0]   

 cryst.   s(16) = (    -1          0          0      )
                  (     1          1          0      )
                  (     0          0          1      )

 cart.    s(16) = ( -1.0000000  0.0000000  0.0000000 )
                  (  0.0000000  1.0000000  0.0000000 )
                  (  0.0000000  0.0000000  1.0000000 )


      isym = 17     inv.  60 deg rotation - cryst. axis [0,0,1]  

 cryst.   s(17) = (    -1         -1          0      )
                  (     1          0          0      )
                  (     0          0         -1      )

 cart.    s(17) = ( -0.5000000  0.8660254  0.0000000 )
                  ( -0.8660254 -0.5000000  0.0000000 )
                  (  0.0000000  0.0000000 -1.0000000 )


      isym = 18     inv.  60 deg rotation - cryst. axis [0,0,-1] 

 cryst.   s(18) = (     0          1          0      )
                  (    -1         -1          0      )
                  (     0          0         -1      )

 cart.    s(18) = ( -0.5000000 -0.8660254  0.0000000 )
                  (  0.8660254 -0.5000000  0.0000000 )
                  (  0.0000000  0.0000000 -1.0000000 )


      isym = 19     inv. 120 deg rotation - cryst. axis [0,0,1]  

 cryst.   s(19) = (     0         -1          0      )
                  (     1          1          0      )
                  (     0          0         -1      )

 cart.    s(19) = (  0.5000000  0.8660254  0.0000000 )
                  ( -0.8660254  0.5000000  0.0000000 )
                  (  0.0000000  0.0000000 -1.0000000 )


      isym = 20     inv. 120 deg rotation - cryst. axis [0,0,-1] 

 cryst.   s(20) = (     1          1          0      )
                  (    -1          0          0      )
                  (     0          0         -1      )

 cart.    s(20) = (  0.5000000 -0.8660254  0.0000000 )
                  (  0.8660254  0.5000000  0.0000000 )
                  (  0.0000000  0.0000000 -1.0000000 )


      isym = 21     inv. 180 deg rotation - cryst. axis [1,-1,0] 

 cryst.   s(21) = (     0          1          0      )
                  (     1          0          0      )
                  (     0          0          1      )

 cart.    s(21) = ( -0.5000000  0.8660254  0.0000000 )
                  (  0.8660254  0.5000000  0.0000000 )
                  (  0.0000000  0.0000000  1.0000000 )


      isym = 22     inv. 180 deg rotation - cryst. axis [2,1,0]  

 cryst.   s(22) = (    -1         -1          0      )
                  (     0          1          0      )
                  (     0          0          1      )

 cart.    s(22) = ( -0.5000000 -0.8660254  0.0000000 )
                  ( -0.8660254  0.5000000  0.0000000 )
                  (  0.0000000  0.0000000  1.0000000 )


      isym = 23     inv. 180 deg rotation - cryst. axis [0,1,0]  

 cryst.   s(23) = (     1          1          0      )
                  (     0         -1          0      )
                  (     0          0          1      )

 cart.    s(23) = (  0.5000000  0.8660254  0.0000000 )
                  (  0.8660254 -0.5000000  0.0000000 )
                  (  0.0000000  0.0000000  1.0000000 )


      isym = 24     inv. 180 deg rotation - cryst. axis [1,1,0]  

 cryst.   s(24) = (     0         -1          0      )
                  (    -1          0          0      )
                  (     0          0          1      )

 cart.    s(24) = (  0.5000000 -0.8660254  0.0000000 )
                  ( -0.8660254 -0.5000000  0.0000000 )
                  (  0.0000000  0.0000000  1.0000000 )


     point group D_6h(6/mmm)
     there are 12 classes
     the character table:

       E     2C6   2C3   C2    3C2'  3C2'' i     2S3   2S6   s_h   3s_d  3s_v 
A_1g   1.00  1.00  1.00  1.00  1.00  1.00  1.00  1.00  1.00  1.00  1.00  1.00
A_2g   1.00  1.00  1.00  1.00 -1.00 -1.00  1.00  1.00  1.00  1.00 -1.00 -1.00
B_1g   1.00 -1.00  1.00 -1.00  1.00 -1.00  1.00 -1.00  1.00 -1.00  1.00 -1.00
B_2g   1.00 -1.00  1.00 -1.00 -1.00  1.00  1.00 -1.00  1.00 -1.00 -1.00  1.00
E_1g   2.00  1.00 -1.00 -2.00  0.00  0.00  2.00  1.00 -1.00 -2.00  0.00  0.00
E_2g   2.00 -1.00 -1.00  2.00  0.00  0.00  2.00 -1.00 -1.00  2.00  0.00  0.00
A_1u   1.00  1.00  1.00  1.00  1.00  1.00 -1.00 -1.00 -1.00 -1.00 -1.00 -1.00
A_2u   1.00  1.00  1.00  1.00 -1.00 -1.00 -1.00 -1.00 -1.00 -1.00  1.00  1.00
B_1u   1.00 -1.00  1.00 -1.00  1.00 -1.00 -1.00  1.00 -1.00  1.00 -1.00  1.00
B_2u   1.00 -1.00  1.00 -1.00 -1.00  1.00 -1.00  1.00 -1.00  1.00  1.00 -1.00
E_1u   2.00  1.00 -1.00 -2.00  0.00  0.00 -2.00 -1.00  1.00  2.00  0.00  0.00
E_2u   2.00 -1.00 -1.00  2.00  0.00  0.00 -2.00  1.00  1.00 -2.00  0.00  0.00

     the symmetry operations in each class and the name of the first element:

     E        1
          identity                                               
     2C6      5    6
           60 deg rotation - cryst. axis [0,0,1]                 
     2C3      7    8
          120 deg rotation - cryst. axis [0,0,1]                 
     C2       2
          180 deg rotation - cart. axis [0,0,1]                  
     3C2'     4   12   11
          180 deg rotation - cart. axis [1,0,0]                  
     3C2''    3    9   10
          180 deg rotation - cart. axis [0,1,0]                  
     i       13
          inversion                                              
     2S3     17   18
          inv.  60 deg rotation - cryst. axis [0,0,1]            
     2S6     19   20
          inv. 120 deg rotation - cryst. axis [0,0,1]            
     s_h     14
          inv. 180 deg rotation - cart. axis [0,0,1]             
     3s_d    16   24   23
          inv. 180 deg rotation - cart. axis [1,0,0]             
     3s_v    15   21   22
          inv. 180 deg rotation - cart. axis [0,1,0]             

   Cartesian axes

     site n.     atom                  positions (alat units)
         1           C   tau(   1) = (  -0.0000000   0.5773503   4.0531825  )
         2           C   tau(   2) = (   0.5000000   0.2886751   4.0531825  )

   Crystallographic axes

     site n.     atom                  positions (cryst. coord.)
         1           C   tau(   1) = (  0.3333333  0.6666667  0.5000000  )
         2           C   tau(   2) = (  0.6666667  0.3333333  0.5000000  )

     number of k points=   105  Methfessel-Paxton smearing, width (Ry)=  0.0100
                       cart. coord. in units 2pi/alat
        k(    1) = (   0.0000000   0.0000000   0.0000000), wk =   0.0190476
        k(    2) = (   0.0125000   0.0072169   0.0000000), wk =   0.0190476
        k(    3) = (   0.0250000   0.0144338   0.0000000), wk =   0.0190476
        k(    4) = (   0.0375000   0.0216506   0.0000000), wk =   0.0190476
        k(    5) = (   0.0500000   0.0288675   0.0000000), wk =   0.0190476
        k(    6) = (   0.0625000   0.0360844   0.0000000), wk =   0.0190476
        k(    7) = (   0.0750000   0.0433013   0.0000000), wk =   0.0190476
        k(    8) = (   0.0875000   0.0505181   0.0000000), wk =   0.0190476
        k(    9) = (   0.1000000   0.0577350   0.0000000), wk =   0.0190476
        k(   10) = (   0.1125000   0.0649519   0.0000000), wk =   0.0190476
        k(   11) = (   0.1250000   0.0721688   0.0000000), wk =   0.0190476
        k(   12) = (   0.1375000   0.0793857   0.0000000), wk =   0.0190476
        k(   13) = (   0.1500000   0.0866025   0.0000000), wk =   0.0190476
        k(   14) = (   0.1625000   0.0938194   0.0000000), wk =   0.0190476
        k(   15) = (   0.1750000   0.1010363   0.0000000), wk =   0.0190476
        k(   16) = (   0.1875000   0.1082532   0.0000000), wk =   0.0190476
        k(   17) = (   0.2000000   0.1154701   0.0000000), wk =   0.0190476
        k(   18) = (   0.2125000   0.1226869   0.0000000), wk =   0.0190476
        k(   19) = (   0.2250000   0.1299038   0.0000000), wk =   0.0190476
        k(   20) = (   0.2375000   0.1371207   0.0000000), wk =   0.0190476
        k(   21) = (   0.2500000   0.1443376   0.0000000), wk =   0.0190476
        k(   22) = (   0.2625000   0.1515544   0.0000000), wk =   0.0190476
        k(   23) = (   0.2750000   0.1587713   0.0000000), wk =   0.0190476
        k(   24) = (   0.2875000   0.1659882   0.0000000), wk =   0.0190476
        k(   25) = (   0.3000000   0.1732051   0.0000000), wk =   0.0190476
        k(   26) = (   0.3125000   0.1804220   0.0000000), wk =   0.0190476
        k(   27) = (   0.3250000   0.1876388   0.0000000), wk =   0.0190476
        k(   28) = (   0.3375000   0.1948557   0.0000000), wk =   0.0190476
        k(   29) = (   0.3500000   0.2020726   0.0000000), wk =   0.0190476
        k(   30) = (   0.3625000   0.2092895   0.0000000), wk =   0.0190476
        k(   31) = (   0.3750000   0.2165064   0.0000000), wk =   0.0190476
        k(   32) = (   0.3875000   0.2237232   0.0000000), wk =   0.0190476
        k(   33) = (   0.4000000   0.2309401   0.0000000), wk =   0.0190476
        k(   34) = (   0.4125000   0.2381570   0.0000000), wk =   0.0190476
        k(   35) = (   0.4250000   0.2453739   0.0000000), wk =   0.0190476
        k(   36) = (   0.4375000   0.2525907   0.0000000), wk =   0.0190476
        k(   37) = (   0.4500000   0.2598076   0.0000000), wk =   0.0190476
        k(   38) = (   0.4625000   0.2670245   0.0000000), wk =   0.0190476
        k(   39) = (   0.4750000   0.2742414   0.0000000), wk =   0.0190476
        k(   40) = (   0.4875000   0.2814583   0.0000000), wk =   0.0190476
        k(   41) = (   0.5000000   0.2886751   0.0000000), wk =   0.0190476
        k(   42) = (   0.5069444   0.2766470   0.0000000), wk =   0.0190476
        k(   43) = (   0.5138889   0.2646189   0.0000000), wk =   0.0190476
        k(   44) = (   0.5208333   0.2525907   0.0000000), wk =   0.0190476
        k(   45) = (   0.5277778   0.2405626   0.0000000), wk =   0.0190476
        k(   46) = (   0.5347222   0.2285345   0.0000000), wk =   0.0190476
        k(   47) = (   0.5416667   0.2165064   0.0000000), wk =   0.0190476
        k(   48) = (   0.5486111   0.2044782   0.0000000), wk =   0.0190476
        k(   49) = (   0.5555556   0.1924501   0.0000000), wk =   0.0190476
        k(   50) = (   0.5625000   0.1804220   0.0000000), wk =   0.0190476
        k(   51) = (   0.5694444   0.1683938   0.0000000), wk =   0.0190476
        k(   52) = (   0.5763889   0.1563657   0.0000000), wk =   0.0190476
        k(   53) = (   0.5833333   0.1443376   0.0000000), wk =   0.0190476
        k(   54) = (   0.5902778   0.1323094   0.0000000), wk =   0.0190476
        k(   55) = (   0.5972222   0.1202813   0.0000000), wk =   0.0190476
        k(   56) = (   0.6041667   0.1082532   0.0000000), wk =   0.0190476
        k(   57) = (   0.6111111   0.0962250   0.0000000), wk =   0.0190476
        k(   58) = (   0.6180556   0.0841969   0.0000000), wk =   0.0190476
        k(   59) = (   0.6250000   0.0721688   0.0000000), wk =   0.0190476
        k(   60) = (   0.6319444   0.0601407   0.0000000), wk =   0.0190476
        k(   61) = (   0.6388889   0.0481125   0.0000000), wk =   0.0190476
        k(   62) = (   0.6458333   0.0360844   0.0000000), wk =   0.0190476
        k(   63) = (   0.6527778   0.0240563   0.0000000), wk =   0.0190476
        k(   64) = (   0.6597222   0.0120281   0.0000000), wk =   0.0190476
        k(   65) = (   0.6666667   0.0000000   0.0000000), wk =   0.0190476
        k(   66) = (   0.6500000   0.0000000   0.0000000), wk =   0.0190476
        k(   67) = (   0.6333333   0.0000000   0.0000000), wk =   0.0190476
        k(   68) = (   0.6166667   0.0000000   0.0000000), wk =   0.0190476
        k(   69) = (   0.6000000   0.0000000   0.0000000), wk =   0.0190476
        k(   70) = (   0.5833333   0.0000000   0.0000000), wk =   0.0190476
        k(   71) = (   0.5666667   0.0000000   0.0000000), wk =   0.0190476
        k(   72) = (   0.5500000   0.0000000   0.0000000), wk =   0.0190476
        k(   73) = (   0.5333333   0.0000000   0.0000000), wk =   0.0190476
        k(   74) = (   0.5166667   0.0000000   0.0000000), wk =   0.0190476
        k(   75) = (   0.5000000   0.0000000   0.0000000), wk =   0.0190476
        k(   76) = (   0.4833333   0.0000000   0.0000000), wk =   0.0190476
        k(   77) = (   0.4666667   0.0000000   0.0000000), wk =   0.0190476
        k(   78) = (   0.4500000   0.0000000   0.0000000), wk =   0.0190476
        k(   79) = (   0.4333333   0.0000000   0.0000000), wk =   0.0190476
        k(   80) = (   0.4166667   0.0000000   0.0000000), wk =   0.0190476
        k(   81) = (   0.4000000   0.0000000   0.0000000), wk =   0.0190476
        k(   82) = (   0.3833333   0.0000000   0.0000000), wk =   0.0190476
        k(   83) = (   0.3666667   0.0000000   0.0000000), wk =   0.0190476
        k(   84) = (   0.3500000   0.0000000   0.0000000), wk =   0.0190476
        k(   85) = (   0.3333333   0.0000000   0.0000000), wk =   0.0190476
        k(   86) = (   0.3166667   0.0000000   0.0000000), wk =   0.0190476
        k(   87) = (   0.3000000   0.0000000   0.0000000), wk =   0.0190476
        k(   88) = (   0.2833333   0.0000000   0.0000000), wk =   0.0190476
        k(   89) = (   0.2666667   0.0000000   0.0000000), wk =   0.0190476
        k(   90) = (   0.2500000   0.0000000   0.0000000), wk =   0.0190476
        k(   91) = (   0.2333333   0.0000000   0.0000000), wk =   0.0190476
        k(   92) = (   0.2166667   0.0000000   0.0000000), wk =   0.0190476
        k(   93) = (   0.2000000   0.0000000   0.0000000), wk =   0.0190476
        k(   94) = (   0.1833333   0.0000000   0.0000000), wk =   0.0190476
        k(   95) = (   0.1666667   0.0000000   0.0000000), wk =   0.0190476
        k(   96) = (   0.1500000   0.0000000   0.0000000), wk =   0.0190476
        k(   97) = (   0.1333333   0.0000000   0.0000000), wk =   0.0190476
        k(   98) = (   0.1166667   0.0000000   0.0000000), wk =   0.0190476
        k(   99) = (   0.1000000   0.0000000   0.0000000), wk =   0.0190476
        k(  100) = (   0.0833333   0.0000000   0.0000000), wk =   0.0190476
        k(  101) = (   0.0666667   0.0000000   0.0000000), wk =   0.0190476
        k(  102) = (   0.0500000   0.0000000   0.0000000), wk =   0.0190476
        k(  103) = (   0.0333333   0.0000000   0.0000000), wk =   0.0190476
        k(  104) = (   0.0166667   0.0000000   0.0000000), wk =   0.0190476
        k(  105) = (   0.0000000   0.0000000   0.0000000), wk =   0.0190476

                       cryst. coord.
        k(    1) = (   0.0000000   0.0000000   0.0000000), wk =   0.0190476
        k(    2) = (   0.0125000   0.0000000   0.0000000), wk =   0.0190476
        k(    3) = (   0.0250000   0.0000000   0.0000000), wk =   0.0190476
        k(    4) = (   0.0375000   0.0000000   0.0000000), wk =   0.0190476
        k(    5) = (   0.0500000   0.0000000   0.0000000), wk =   0.0190476
        k(    6) = (   0.0625000   0.0000000   0.0000000), wk =   0.0190476
        k(    7) = (   0.0750000   0.0000000   0.0000000), wk =   0.0190476
        k(    8) = (   0.0875000   0.0000000   0.0000000), wk =   0.0190476
        k(    9) = (   0.1000000   0.0000000   0.0000000), wk =   0.0190476
        k(   10) = (   0.1125000   0.0000000   0.0000000), wk =   0.0190476
        k(   11) = (   0.1250000   0.0000000   0.0000000), wk =   0.0190476
        k(   12) = (   0.1375000   0.0000000   0.0000000), wk =   0.0190476
        k(   13) = (   0.1500000   0.0000000   0.0000000), wk =   0.0190476
        k(   14) = (   0.1625000   0.0000000   0.0000000), wk =   0.0190476
        k(   15) = (   0.1750000   0.0000000   0.0000000), wk =   0.0190476
        k(   16) = (   0.1875000   0.0000000   0.0000000), wk =   0.0190476
        k(   17) = (   0.2000000   0.0000000   0.0000000), wk =   0.0190476
        k(   18) = (   0.2125000   0.0000000   0.0000000), wk =   0.0190476
        k(   19) = (   0.2250000   0.0000000   0.0000000), wk =   0.0190476
        k(   20) = (   0.2375000   0.0000000   0.0000000), wk =   0.0190476
        k(   21) = (   0.2500000   0.0000000   0.0000000), wk =   0.0190476
        k(   22) = (   0.2625000   0.0000000   0.0000000), wk =   0.0190476
        k(   23) = (   0.2750000   0.0000000   0.0000000), wk =   0.0190476
        k(   24) = (   0.2875000   0.0000000   0.0000000), wk =   0.0190476
        k(   25) = (   0.3000000   0.0000000   0.0000000), wk =   0.0190476
        k(   26) = (   0.3125000   0.0000000   0.0000000), wk =   0.0190476
        k(   27) = (   0.3250000   0.0000000   0.0000000), wk =   0.0190476
        k(   28) = (   0.3375000   0.0000000   0.0000000), wk =   0.0190476
        k(   29) = (   0.3500000   0.0000000   0.0000000), wk =   0.0190476
        k(   30) = (   0.3625000   0.0000000   0.0000000), wk =   0.0190476
        k(   31) = (   0.3750000   0.0000000   0.0000000), wk =   0.0190476
        k(   32) = (   0.3875000   0.0000000   0.0000000), wk =   0.0190476
        k(   33) = (   0.4000000   0.0000000   0.0000000), wk =   0.0190476
        k(   34) = (   0.4125000   0.0000000   0.0000000), wk =   0.0190476
        k(   35) = (   0.4250000   0.0000000   0.0000000), wk =   0.0190476
        k(   36) = (   0.4375000  -0.0000000   0.0000000), wk =   0.0190476
        k(   37) = (   0.4500000   0.0000000   0.0000000), wk =   0.0190476
        k(   38) = (   0.4625000   0.0000000   0.0000000), wk =   0.0190476
        k(   39) = (   0.4750000   0.0000000   0.0000000), wk =   0.0190476
        k(   40) = (   0.4875000   0.0000000   0.0000000), wk =   0.0190476
        k(   41) = (   0.5000000   0.0000000   0.0000000), wk =   0.0190476
        k(   42) = (   0.5069444  -0.0138889   0.0000000), wk =   0.0190476
        k(   43) = (   0.5138889  -0.0277778   0.0000000), wk =   0.0190476
        k(   44) = (   0.5208333  -0.0416667   0.0000000), wk =   0.0190476
        k(   45) = (   0.5277778  -0.0555556   0.0000000), wk =   0.0190476
        k(   46) = (   0.5347222  -0.0694444   0.0000000), wk =   0.0190476
        k(   47) = (   0.5416667  -0.0833333   0.0000000), wk =   0.0190476
        k(   48) = (   0.5486111  -0.0972222   0.0000000), wk =   0.0190476
        k(   49) = (   0.5555556  -0.1111111   0.0000000), wk =   0.0190476
        k(   50) = (   0.5625000  -0.1250000   0.0000000), wk =   0.0190476
        k(   51) = (   0.5694444  -0.1388889   0.0000000), wk =   0.0190476
        k(   52) = (   0.5763889  -0.1527778   0.0000000), wk =   0.0190476
        k(   53) = (   0.5833333  -0.1666667   0.0000000), wk =   0.0190476
        k(   54) = (   0.5902778  -0.1805556   0.0000000), wk =   0.0190476
        k(   55) = (   0.5972222  -0.1944444   0.0000000), wk =   0.0190476
        k(   56) = (   0.6041667  -0.2083333   0.0000000), wk =   0.0190476
        k(   57) = (   0.6111111  -0.2222222   0.0000000), wk =   0.0190476
        k(   58) = (   0.6180556  -0.2361111   0.0000000), wk =   0.0190476
        k(   59) = (   0.6250000  -0.2500000   0.0000000), wk =   0.0190476
        k(   60) = (   0.6319444  -0.2638889   0.0000000), wk =   0.0190476
        k(   61) = (   0.6388889  -0.2777778   0.0000000), wk =   0.0190476
        k(   62) = (   0.6458333  -0.2916667   0.0000000), wk =   0.0190476
        k(   63) = (   0.6527778  -0.3055556   0.0000000), wk =   0.0190476
        k(   64) = (   0.6597222  -0.3194444   0.0000000), wk =   0.0190476
        k(   65) = (   0.6666667  -0.3333333   0.0000000), wk =   0.0190476
        k(   66) = (   0.6500000  -0.3250000   0.0000000), wk =   0.0190476
        k(   67) = (   0.6333333  -0.3166667   0.0000000), wk =   0.0190476
        k(   68) = (   0.6166667  -0.3083333   0.0000000), wk =   0.0190476
        k(   69) = (   0.6000000  -0.3000000   0.0000000), wk =   0.0190476
        k(   70) = (   0.5833333  -0.2916667   0.0000000), wk =   0.0190476
        k(   71) = (   0.5666667  -0.2833333   0.0000000), wk =   0.0190476
        k(   72) = (   0.5500000  -0.2750000   0.0000000), wk =   0.0190476
        k(   73) = (   0.5333333  -0.2666667   0.0000000), wk =   0.0190476
        k(   74) = (   0.5166667  -0.2583333   0.0000000), wk =   0.0190476
        k(   75) = (   0.5000000  -0.2500000   0.0000000), wk =   0.0190476
        k(   76) = (   0.4833333  -0.2416667   0.0000000), wk =   0.0190476
        k(   77) = (   0.4666667  -0.2333333   0.0000000), wk =   0.0190476
        k(   78) = (   0.4500000  -0.2250000   0.0000000), wk =   0.0190476
        k(   79) = (   0.4333333  -0.2166667   0.0000000), wk =   0.0190476
        k(   80) = (   0.4166667  -0.2083333   0.0000000), wk =   0.0190476
        k(   81) = (   0.4000000  -0.2000000   0.0000000), wk =   0.0190476
        k(   82) = (   0.3833333  -0.1916667   0.0000000), wk =   0.0190476
        k(   83) = (   0.3666667  -0.1833333   0.0000000), wk =   0.0190476
        k(   84) = (   0.3500000  -0.1750000   0.0000000), wk =   0.0190476
        k(   85) = (   0.3333333  -0.1666667   0.0000000), wk =   0.0190476
        k(   86) = (   0.3166667  -0.1583333   0.0000000), wk =   0.0190476
        k(   87) = (   0.3000000  -0.1500000   0.0000000), wk =   0.0190476
        k(   88) = (   0.2833333  -0.1416667   0.0000000), wk =   0.0190476
        k(   89) = (   0.2666667  -0.1333333   0.0000000), wk =   0.0190476
        k(   90) = (   0.2500000  -0.1250000   0.0000000), wk =   0.0190476
        k(   91) = (   0.2333333  -0.1166667   0.0000000), wk =   0.0190476
        k(   92) = (   0.2166667  -0.1083333   0.0000000), wk =   0.0190476
        k(   93) = (   0.2000000  -0.1000000   0.0000000), wk =   0.0190476
        k(   94) = (   0.1833333  -0.0916667   0.0000000), wk =   0.0190476
        k(   95) = (   0.1666667  -0.0833333   0.0000000), wk =   0.0190476
        k(   96) = (   0.1500000  -0.0750000   0.0000000), wk =   0.0190476
        k(   97) = (   0.1333333  -0.0666667   0.0000000), wk =   0.0190476
        k(   98) = (   0.1166667  -0.0583333   0.0000000), wk =   0.0190476
        k(   99) = (   0.1000000  -0.0500000   0.0000000), wk =   0.0190476
        k(  100) = (   0.0833333  -0.0416667   0.0000000), wk =   0.0190476
        k(  101) = (   0.0666667  -0.0333333   0.0000000), wk =   0.0190476
        k(  102) = (   0.0500000  -0.0250000   0.0000000), wk =   0.0190476
        k(  103) = (   0.0333333  -0.0166667   0.0000000), wk =   0.0190476
        k(  104) = (   0.0166667  -0.0083333   0.0000000), wk =   0.0190476
        k(  105) = (   0.0000000   0.0000000   0.0000000), wk =   0.0190476

     Dense  grid:   126311 G-vectors     FFT dimensions: (  36,  36, 270)

     Smooth grid:    68693 G-vectors     FFT dimensions: (  27,  27, 216)

     Dynamical RAM for                 wfc:       1.18 MB

     Dynamical RAM for     wfc (w. buffer):       1.18 MB

     Dynamical RAM for           str. fact:       0.48 MB

     Dynamical RAM for           local pot:       0.00 MB

     Dynamical RAM for          nlocal pot:       0.52 MB

     Dynamical RAM for                qrad:       0.50 MB

     Dynamical RAM for          rho,v,vnew:       3.46 MB

     Dynamical RAM for           G-vectors:       1.94 MB

     Dynamical RAM for          h,s,v(r/c):       0.06 MB

     Dynamical RAM for          <psi|beta>:       0.01 MB

     Dynamical RAM for                 psi:       2.36 MB

     Dynamical RAM for                hpsi:       2.36 MB

     Dynamical RAM for                spsi:       2.36 MB

     Dynamical RAM for      wfcinit/wfcrot:       2.39 MB

     Dynamical RAM for           addusdens:       3.51 MB

     Estimated static dynamical RAM per process >      12.42 MB

     Estimated max dynamical RAM per process >      19.57 MB

     Estimated total dynamical RAM >     547.85 MB

     The potential is recalculated from file :
     ./graphene.save/charge-density


     negative rho (up, down):  1.103E-04 0.000E+00
     Starting wfcs are    8 randomized atomic wfcs +   28 random wfcs
     Checking if some PAW data can be deallocated... 

     Band Structure Calculation
     Davidson diagonalization with overlap

     Computing kpt #:     1  of    15 on this pool
     total cpu time spent up to now is        7.4 secs

     Computing kpt #:     2  of    15 on this pool
     total cpu time spent up to now is        9.8 secs

     Computing kpt #:     3  of    15 on this pool
     total cpu time spent up to now is       13.7 secs

     Computing kpt #:     4  of    15 on this pool
     total cpu time spent up to now is       16.2 secs

     Computing kpt #:     5  of    15 on this pool
     total cpu time spent up to now is       19.4 secs

     Computing kpt #:     6  of    15 on this pool
     total cpu time spent up to now is       22.8 secs

     Computing kpt #:     7  of    15 on this pool
     total cpu time spent up to now is       25.4 secs

     Computing kpt #:     8  of    15 on this pool
     total cpu time spent up to now is       28.0 secs

     Computing kpt #:     9  of    15 on this pool
     total cpu time spent up to now is       30.5 secs

     Computing kpt #:    10  of    15 on this pool
     total cpu time spent up to now is       33.2 secs

     Computing kpt #:    11  of    15 on this pool
     total cpu time spent up to now is       37.1 secs

     Computing kpt #:    12  of    15 on this pool
     total cpu time spent up to now is       41.2 secs

     Computing kpt #:    13  of    15 on this pool
     total cpu time spent up to now is       43.9 secs

     Computing kpt #:    14  of    15 on this pool
     total cpu time spent up to now is       46.7 secs

     Computing kpt #:    15  of    15 on this pool
     total cpu time spent up to now is       50.0 secs

     ethr =  1.00E-13,  avg # of iterations = 51.6

     total cpu time spent up to now is       50.0 secs

     End of band structure calculation

          k = 0.0000 0.0000 0.0000 (  8675 PWs)   bands (ev):

   -21.8715  -9.9677  -5.4096  -5.4096   0.8920   1.6346   1.8360   2.7978
     3.2674   4.9408   5.5875   5.9630   5.9630   7.9172   8.7070   9.0486
    10.1177  11.6519  12.6606  16.1395  17.4137  20.1181  21.2819  22.9368
    25.8418  25.8418  26.6699  29.2243  29.2287  29.2287  30.5687  32.8242
    32.8242  33.3252  33.3252  33.8168

          k = 0.0125 0.0072 0.0000 (  8661 PWs)   bands (ev):

   -21.8678  -9.9633  -5.4250  -5.4177   0.8970   1.6397   1.8411   2.8029
     3.2725   4.9458   5.5922   5.9657   5.9792   7.9221   8.7121   9.0356
    10.1241  11.6567  12.6657  16.1439  17.4187  20.1303  21.2845  22.9417
    25.7989  25.8064  26.6493  29.1795  29.2291  29.2805  30.6972  32.4211
    32.6087  33.2641  33.5482  33.7246

          k = 0.0250 0.0144 0.0000 (  8675 PWs)   bands (ev):

   -21.8568  -9.9501  -5.4710  -5.4420   0.9120   1.6549   1.8565   2.8182
     3.2877   4.9610   5.6064   5.9735   6.0276   7.9370   8.7274   8.9967
    10.1436  11.6711  12.6808  16.1571  17.4337  20.1667  21.2923  22.9564
    25.6775  25.6898  26.6068  29.0815  29.2434  29.4287  31.0228  31.7537
    32.2573  32.9768  33.0628  33.1314

          k = 0.0375 0.0217 0.0000 (  8671 PWs)   bands (ev):

   -21.8383  -9.9280  -5.5469  -5.4820   0.9371   1.6803   1.8822   2.8436
     3.3131   4.9861   5.6300   5.9856   6.1077   7.9617   8.7529   8.9324
    10.1765  11.6950  12.7060  16.1790  17.4586  20.2267  21.3044  22.9810
    25.4774  25.4947  26.5799  28.9960  29.2672  29.6555  31.0435  31.4559
    31.8936  32.3112  32.3214  32.6785

          k = 0.0500 0.0289 0.0000 (  8685 PWs)   bands (ev):

   -21.8125  -9.8972  -5.6517  -5.5368   0.9722   1.7159   1.9181   2.8791
     3.3486   5.0214   5.6629   6.0010   6.2187   7.9964   8.7886   8.8430
    10.2233  11.7285  12.7413  16.2094  17.4936  20.3093  21.3197  23.0154
    25.1793  25.2694  26.5869  28.9422  29.3004  29.9412  30.3237  31.5331
    31.5342  31.5641  31.9416  32.3247

          k = 0.0625 0.0361 0.0000 (  8681 PWs)   bands (ev):

   -21.7794  -9.8575  -5.7838  -5.6056   1.0173   1.7616   1.9643   2.9248
     3.3943   5.0667   5.7047   6.0185   6.3595   8.0409   8.7295   8.8344
    10.2847  11.7715  12.7866  16.2484  17.5384  20.4131  21.3358  23.0598
    24.8243  25.0170  26.6250  28.9175  29.3426  29.6052  30.2683  30.7632
    30.8159  31.1794  31.9263  31.9516

          k = 0.0750 0.0433 0.0000 (  8683 PWs)   bands (ev):

   -21.7388  -9.8091  -5.9417  -5.6870   1.0724   1.8175   2.0207   2.9807
     3.4501   5.1221   5.7550   6.0369   6.5288   8.0952   8.5927   8.8903
    10.3614  11.8240  12.8420  16.2955  17.5930  20.5363  21.3494  23.1142
    24.4416  24.7484  26.6848  28.8897  28.9125  29.3965  30.0014  30.0769
    30.6212  30.8339  31.2362  31.3133

          k = 0.0875 0.0505 0.0000 (  8691 PWs)   bands (ev):

   -21.6910  -9.7520  -6.1233  -5.7797   1.1375   1.8835   2.0874   3.0467
     3.5161   5.1875   5.8121   6.0562   6.7251   8.1591   8.4339   8.9563
    10.4538  11.8858  12.9073  16.3506  17.6573  20.6763  21.3549  23.1787
    24.0549  24.4715  26.7574  28.1839  28.9024  29.2495  29.3680  29.4583
    30.4973  30.5228  30.5977  30.9797

          k = 0.1000 0.0577 0.0000 (  8683 PWs)   bands (ev):

   -21.6358  -9.6861  -6.3268  -5.8823   1.2127   1.9597   2.1643   3.1229
     3.5923   5.2630   5.8727   6.0782   6.9469   8.2244   8.2624   9.0323
    10.5621  11.9571  12.9826  16.4133  17.7314  20.8303  21.3435  23.2536
    23.6848  24.1913  26.8319  27.4881  28.5082  28.5637  29.0078  29.5296
    29.8228  29.8764  30.1697  31.0526

          k = 0.1125 0.0650 0.0000 (  8675 PWs)   bands (ev):

   -21.5733  -9.6116  -6.5500  -5.9934   1.2979   2.0460   2.2515   3.2091
     3.6786   5.3484   5.9284   6.1102   7.1926   8.0511   8.3193   9.1183
    10.6865  12.0375  13.0678  16.4830  17.8150  20.9942  21.3015  23.3389
    23.3521  23.9114  26.8045  26.8872  27.7774  27.8964  28.9653  29.1613
    29.1792  29.6103  29.8516  30.7290

          k = 0.1250 0.0722 0.0000 (  8657 PWs)   bands (ev):

   -21.5035  -9.5285  -6.7910  -6.1116   1.3931   2.1424   2.3490   3.3055
     3.7750   5.4438   5.9657   6.1648   7.4606   7.8327   8.4126   9.2141
    10.8264  12.1272  13.1630  16.5592  17.9082  21.1629  21.2116  23.0792
    23.4347  23.6341  26.1357  26.8277  27.0576  27.3084  28.4557  28.4571
    29.0513  29.5429  29.6993  30.3860

          k = 0.1375 0.0794 0.0000 (  8657 PWs)   bands (ev):

   -21.4264  -9.4368  -7.0477  -6.2354   1.4984   2.2489   2.4567   3.4120
     3.8816   5.5491   5.9793   6.2468   7.5967   7.7493   8.5160   9.3199
    10.9811  12.2259  13.2680  16.6409  18.0109  21.0586  21.3293  22.8835
    23.3613  23.5408  25.4859  26.3495  26.3614  27.0470  27.7609  27.8991
    29.0532  29.2438  29.7914  29.9222

          k = 0.1500 0.0866 0.0000 (  8651 PWs)   bands (ev):

   -21.3420  -9.3366  -7.3183  -6.3636   1.6136   2.3655   2.5747   3.5286
     3.9983   5.6641   5.9754   6.3500   7.3448   8.0571   8.6293   9.4356
    11.1494  12.3336  13.3828  16.7270  18.1229  20.8417  21.4826  22.7670
    23.0942  23.6561  24.8623  25.6542  25.7188  26.7253  27.0786  27.5650
    28.9543  29.0446  29.3016  29.3597

          k = 0.1625 0.0938 0.0000 (  8645 PWs)   bands (ev):

   -21.2504  -9.2280  -7.6011  -6.4950   1.7388   2.4922   2.7030   3.6552
     4.1250   5.7886   5.9600   6.4687   7.0787   8.3826   8.7523   9.5611
    11.3300  12.4500  13.5074  16.8158  18.2442  20.5762  21.6047  22.7130
    22.8337  23.7712  24.2842  24.9747  25.0646  26.1933  26.4106  27.4097
    28.6556  28.6745  28.8157  29.0243

          k = 0.1750 0.1010 0.0000 (  8617 PWs)   bands (ev):

   -21.1516  -9.1111  -7.8943  -6.6283   1.8740   2.6289   2.8415   3.7918
     4.2619   5.9219   5.9361   6.6001   6.8006   8.7241   8.8849   9.6964
    11.5210  12.5750  13.6419  16.9048  18.3747  20.2838  21.6633  22.5804
    22.6941  23.6758  23.9733  24.3249  24.4232  25.6011  25.7611  27.1964
    28.0119  28.4004  28.4044  28.9883

          k = 0.1875 0.1083 0.0000 (  8611 PWs)   bands (ev):

   -21.0456  -8.9859  -8.1964  -6.7626   2.0192   2.7755   2.9903   3.9382
     4.4088   5.9057   6.0598   6.5158   6.7430   9.0272   9.0804   9.8416
    11.7206  12.7083  13.7860  16.9903  18.5142  19.9835  21.6037  22.3351
    22.6731  23.2412  23.6855  23.8128  24.1180  25.0109  25.1396  26.8225
    27.3794  28.1340  28.1441  28.9520

          k = 0.2000 0.1155 0.0000 (  8617 PWs)   bands (ev):

   -20.9324  -8.8526  -8.5060  -6.8970   2.1743   2.9320   3.1493   4.0944
     4.5655   5.8701   6.1288   6.2995   6.8969   9.1789   9.4500   9.9966
    11.9266  12.8496  13.9398  17.0669  18.6625  19.6905  21.3729  22.0979
    22.5702  22.7746  23.2403  23.2858  24.2253  24.4535  24.5952  26.3362
    26.7637  27.8934  27.9342  28.8639

          k = 0.2125 0.1227 0.0000 (  8607 PWs)   bands (ev):

   -20.8121  -8.8219  -8.7113  -7.0304   2.3394   3.0983   3.3185   4.2599
     4.7321   5.8306   5.8721   6.4104   7.0614   9.3402   9.8316  10.1614
    12.1364  12.9983  14.1033  17.1262  18.8192  19.4180  20.9868  21.8693
    22.1998  22.2333  22.9425  22.9824  23.9737  23.9753  24.5061  25.8126
    26.1730  27.6525  27.7115  28.5990

          k = 0.2250 0.1299 0.0000 (  8607 PWs)   bands (ev):

   -20.6847  -9.1428  -8.5622  -7.1623   2.5144   3.2740   3.4980   4.4337
     4.9080   5.5609   5.7884   6.5795   7.2363   9.5107  10.2238  10.3361
    12.3473  13.1541  14.2763  17.1566  18.9835  19.1793  20.5132  21.5874
    21.6496  21.7132  22.6433  22.6836  23.6521  23.6531  24.6505  25.2978
    25.6284  27.4213  27.4260  28.2815

          k = 0.2375 0.1371 0.0000 (  8613 PWs)   bands (ev):

   -20.5503  -9.4676  -8.4053  -7.2918   2.6993   3.4585   3.6878   4.6110
     5.0925   5.2460   5.7453   6.7627   7.4215   9.6906  10.5205  10.6254
    12.5561  13.3160  14.4588  17.1431  18.9873  19.1528  20.0057  20.9726
    21.1498  21.4388  22.2294  22.2347  23.4789  23.4857  24.7274  24.8338
    25.2246  27.0723  27.1998  27.8451

          k = 0.2500 0.1443 0.0000 (  8603 PWs)   bands (ev):

   -20.4089  -9.7954  -8.2410  -7.4184   2.8940   3.6502   3.8878   4.7405
     4.9847   5.2825   5.7050   6.9567   7.6169   9.8794  10.7148  11.0349
    12.7589  13.4830  14.6506  17.0727  18.8491  19.2922  19.5248  20.3647
    20.5880  21.2373  21.7059  21.7489  23.3051  23.3374  24.4848  24.5185
    25.2069  26.6677  26.9880  27.3358

          k = 0.2625 0.1516 0.0000 (  8598 PWs)   bands (ev):

   -20.2605 -10.1252  -8.0693  -7.5415   3.0985   3.8423   4.0979   4.5406
     5.0670   5.4618   5.6848   7.1611   7.8224  10.0773  10.9187  11.4510
    12.9507  13.6535  14.8516  16.9418  18.7541  18.9344  19.5454  19.7723
    20.0465  21.0450  21.1542  21.2583  23.0125  23.0761  24.2841  24.3036
    25.3628  26.2426  26.7858  26.8257

          k = 0.2750 0.1588 0.0000 (  8586 PWs)   bands (ev):

   -20.1052 -10.4563  -7.8907  -7.6605   3.3128   3.9755   4.2945   4.3183
     5.2706   5.5384   5.7770   7.3753   8.0381  10.2838  11.1324  11.8722
    13.1255  13.8253  15.0617  16.7589  18.4336  18.6599  19.1740  19.5517
    19.7422  20.6036  20.7892  20.8623  22.6140  22.6815  24.1591  24.2372
    25.5173  25.8350  26.3649  26.5932

          k = 0.2875 0.1660 0.0000 (  8580 PWs)   bands (ev):

   -19.9431 -10.7879  -7.7751  -7.7053   3.5367   3.7866   4.3682   4.5487
     5.4937   5.5151   5.9798   7.5994   8.2637  10.4987  11.3556  12.2969
    13.2751  13.9945  15.2804  16.5387  17.9432  18.4710  18.6041  19.1630
    19.8968  20.1017  20.3702  20.6890  22.1761  22.2151  24.0767  24.1725
    25.4999  25.5309  26.0899  26.4102

          k = 0.3000 0.1732 0.0000 (  8572 PWs)   bands (ev):

   -19.7743 -11.1193  -7.8849  -7.5136   3.4627   3.7702   4.5832   4.7890
     5.4749   5.7291   6.2109   7.8332   8.4994  10.7216  11.5885  12.7235
    13.3891  14.1548  15.5075  16.2962  17.4708  18.0528  18.1139  18.9018
    19.5000  20.0382  20.1717  20.5254  21.7253  21.7438  23.9612  24.0070
    25.2879  25.3065  26.1372  26.2367

          k = 0.3125 0.1804 0.0000 (  8578 PWs)   bands (ev):

   -19.5987 -11.4499  -7.9895  -7.3161   3.1224   4.0129   4.8232   5.0383
     5.4334   5.9755   6.4563   8.0765   8.7450  10.9522  11.8308  13.1502
    13.4544  14.2946  15.7421  16.0470  17.0151  17.5307  17.6658  18.6458
    18.9919  19.8166  20.3701  20.3714  21.2405  21.3500  23.7122  23.7542
    25.0371  25.2673  26.0727  26.2839

          k = 0.3250 0.1876 0.0000 (  8580 PWs)   bands (ev):

   -19.4166 -11.7790  -8.0885  -7.1131   2.7789   4.2644   5.0770   5.2860
     5.4049   6.2322   6.7132   8.3293   9.0004  11.1895  12.0825  13.4564
    13.5750  14.3917  15.8115  15.9816  16.5654  17.0561  17.1987  18.3356
    18.5059  19.6608  20.2272  20.5066  20.8348  21.0323  23.3437  23.4411
    24.8752  25.3126  25.9180  26.4193

          k = 0.3375 0.1949 0.0000 (  8572 PWs)   bands (ev):

   -19.2281 -12.1061  -8.1817  -6.9055   2.4360   4.5236   5.3390   5.3421
     5.5845   6.4990   6.9809   8.5913   9.2658  11.4327  12.3431  13.3827
    13.9956  14.4078  15.6199  16.0807  16.2419  16.6511  16.7417  17.9966
    18.0561  19.4841  20.0928  20.2111  20.8280  20.8801  22.9575  23.0583
    24.7780  25.3573  25.7727  26.3722

          k = 0.3500 0.2021 0.0000 (  8580 PWs)   bands (ev):

   -19.0332 -12.4307  -8.2689  -6.6939   2.0961   4.7866   5.3118   5.6178
     5.8621   6.7759   7.2590   8.8625   9.5408  11.6800  12.6117  13.2291
    14.3029  14.4097  15.4892  15.6069  16.2495  16.3195  16.5254  17.6578
    17.6592  19.2450  19.7829  19.9682  20.7347  21.0786  22.5915  22.6503
    24.7057  25.3011  25.6366  26.2243

          k = 0.3625 0.2093 0.0000 (  8574 PWs)   bands (ev):

   -18.8323 -12.7522  -8.3499  -6.4794   1.7611   5.0325   5.3104   5.9036
     6.1532   7.0626   7.5474   9.1425   9.8256  11.9284  12.8714  13.0176
    14.0811  14.8143  15.1110  15.3492  15.9207  15.9924  16.7618  17.3275
    17.3438  18.9662  19.3765  19.8535  20.6921  21.2688  22.2567  22.2827
    24.6299  25.0860  25.5098  26.2287

          k = 0.3750 0.2165 0.0000 (  8562 PWs)   bands (ev):

   -18.6254 -13.0701  -8.4244  -6.2633   1.4329   5.1510   5.4480   6.1993
     6.4552   7.3590   7.8459   9.4310  10.1200  12.1712  12.6934  13.1910
    13.7871  14.6125  15.0715  15.2064  15.5607  15.8309  16.9242  17.0679
    17.1455  18.6874  19.0146  19.7486  20.6211  21.3661  21.9633  22.0756
    24.5296  24.7735  25.3922  25.9691

          k = 0.3875 0.2237 0.0000 (  8570 PWs)   bands (ev):

   -18.4129 -13.3838  -8.4922  -6.0472   1.1139   5.1493   5.7178   6.5048
     6.7676   7.6651   8.1544   9.7277  10.4239  12.3588  12.3899  13.4716
    13.4845  14.1175  14.6900  15.1704  15.5825  15.7386  16.7374  16.8523
    17.3431  18.4391  18.7127  19.6537  20.4701  21.1953  21.9486  21.9987
    24.3874  24.4312  25.2839  25.7044

          k = 0.4000 0.2309 0.0000 (  8564 PWs)   bands (ev):

   -18.1952 -13.6926  -8.5533  -5.8331   0.8065   5.1278   6.0196   6.8197
     7.0904   7.9808   8.4729  10.0318  10.7369  11.9921  12.5141  13.2188
    13.6275  13.7900  14.2819  14.7568  15.5978  15.9385  16.4771  16.7093
    17.6011  18.2424  18.4808  19.5687  20.2497  20.8791  22.0260  22.0907
    24.0973  24.1958  25.1850  25.5042

          k = 0.4125 0.2382 0.0000 (  8572 PWs)   bands (ev):

   -17.9729 -13.9958  -8.6074  -5.6237   0.5139   5.1044   6.3359   7.1440
     7.4235   8.3059   8.8012  10.3419  11.0581  11.6072  12.3852  13.1473
    13.1773  13.8916  14.0993  14.3322  15.3823  16.1794  16.2701  16.6174
    17.8379  18.1077  18.3276  19.4937  20.0068  20.5647  22.0942  22.2395
    23.8055  23.9710  25.0957  25.3773

          k = 0.4250 0.2454 0.0000 (  8586 PWs)   bands (ev):

   -17.7469 -14.2923  -8.6546  -5.4226   0.2399   5.0825   6.6633   7.4775
     7.7668   8.6401   9.1394  10.6548  11.1998  11.4004  12.0680  12.6750
    13.1645  13.6470  13.8932  14.4256  15.1185  15.8460  16.5367  16.5725
    17.9388  18.0282  18.3312  19.4287  19.7861  20.2955  22.1322  22.3395
    23.6011  23.7544  25.0163  25.3144

          k = 0.4375 0.2526 0.0000 (  8574 PWs)   bands (ev):

   -17.5188 -14.5803  -8.6947  -5.2342  -0.0106   5.0631   7.0004   7.8198
     8.1203   8.9832   9.4871  10.8042  10.9576  11.7106  11.7349  12.2119
    12.8722  13.4607  13.7095  14.7513  14.8460  15.4867  16.4445  16.8407
    17.8322  17.9779  18.5219  19.3736  19.6236  20.0947  22.0768  22.3457
    23.5339  23.5990  24.9473  25.3045

          k = 0.4500 0.2598 0.0000 (  8574 PWs)   bands (ev):

   -17.2912 -14.8571  -8.7275  -5.0643  -0.2317   5.0469   7.3467   8.1707
     8.4840   9.3345   9.8436  10.4031  11.1168  11.4823  11.7577  12.0840
    12.4878  13.0305  13.8049  14.6306  15.0521  15.1423  16.3379  17.0696
    17.6377  17.9252  18.7440  19.3285  19.5438  19.9761  21.9199  22.2372
    23.5343  23.6069  24.8893  25.3406

          k = 0.4625 0.2670 0.0000 (  8566 PWs)   bands (ev):

   -17.0694 -15.1172  -8.7532  -4.9197  -0.4163   5.0341   7.7017   8.5295
     8.8578   9.6924   9.9952  10.2181  10.8328  11.3138  11.6697  12.1193
    12.4392  12.6071  13.7342  14.5816  14.7185  15.4287  16.2228  17.2540
    17.3903  17.8564  18.9367  19.2935  19.5476  19.9430  21.7112  22.0494
    23.5355  23.7692  24.8431  25.4156

          k = 0.4750 0.2742 0.0000 (  8572 PWs)   bands (ev):

   -16.8650 -15.3491  -8.7715  -4.8082  -0.5564   5.0248   8.0645   8.8951
     9.2412   9.6033  10.0457  10.4680  10.5905  10.8798  11.6036  12.0987
    12.1851  12.8076  13.4981  14.3314  14.6766  15.7681  16.1103  17.1039
    17.3895  17.7833  19.0743  19.2684  19.6070  19.9812  21.5066  21.8443
    23.5596  23.9656  24.8093  25.5155

          k = 0.4875 0.2815 0.0000 (  8564 PWs)   bands (ev):

   -16.7045 -15.5260  -8.7825  -4.7375  -0.6444   5.0192   8.4329   9.2129
     9.2640   9.6372  10.0375  10.4552  10.4650  10.9759  11.2402  11.7743
    12.3754  13.1794  13.2167  13.9446  14.7865  16.0208  16.1064  16.7931
    17.4724  17.7279  19.1506  19.2534  19.6758  20.0483  21.3539  21.6820
    23.5805  24.1413  24.7888  25.3541

          k = 0.5000 0.2887 0.0000 (  8562 PWs)   bands (ev):

   -16.6390 -15.5971  -8.7862  -4.7132  -0.6745   5.0174   8.7447   8.8946
     9.5621   9.7459  10.0349  10.0471  10.7551  10.9355  11.3532  11.3883
    12.5480  13.0455  13.5308  13.5880  14.8327  15.9850  16.3797  16.5281
    17.5003  17.7074  19.1743  19.2484  19.7062  20.0817  21.2964  21.6188
    23.5882  24.2182  24.7819  25.2709

          k = 0.5069 0.2766 0.0000 (  8548 PWs)   bands (ev):

   -16.6361 -15.5942  -8.8017  -4.7090  -0.6754   5.0382   8.7488   8.8989
     9.5629   9.7506  10.0396  10.0518  10.7571  10.9402  11.3576  11.3928
    12.5457  13.0502  13.5342  13.5922  14.8224  15.9897  16.3737  16.5315
    17.4963  17.6749  19.1918  19.2865  19.7108  20.0820  21.3240  21.6229
    23.5668  24.2226  24.4720  25.2125

          k = 0.5139 0.2646 0.0000 (  8566 PWs)   bands (ev):

   -16.6273 -15.5855  -8.8477  -4.6966  -0.6784   5.1005   8.7608   8.9118
     9.5648   9.7647  10.0537  10.0659  10.7631  10.9544  11.3706  11.4064
    12.5388  13.0643  13.5443  13.6047  14.7923  16.0036  16.3553  16.5417
    17.4862  17.5917  19.2429  19.3852  19.7245  20.0827  21.4071  21.6352
    23.4724  23.9758  24.2360  24.9334

          k = 0.5208 0.2526 0.0000 (  8564 PWs)   bands (ev):

   -16.6127 -15.5710  -8.9234  -4.6758  -0.6835   5.2031   8.7809   8.9332
     9.5671   9.7883  10.0772  10.0895  10.7730  10.9780  11.3923  11.4290
    12.5269  13.0878  13.5608  13.6256  14.7451  16.0269  16.3242  16.5584
    17.4744  17.4862  19.3237  19.5118  19.7474  20.0831  21.5444  21.6555
    23.1387  23.6590  24.2582  24.4157

          k = 0.5278 0.2406 0.0000 (  8564 PWs)   bands (ev):

   -16.5922 -15.5508  -9.0273  -4.6466  -0.6910   5.3446   8.8090   8.9631
     9.5686   9.8213  10.1101  10.1226  10.7865  11.0111  11.4227  11.4606
    12.5098  13.1206  13.5837  13.6547  14.6855  16.0594  16.2801  16.5816
    17.3824  17.4667  19.4292  19.6385  19.7795  20.0821  21.6839  21.7295
    22.5949  23.5171  23.8311  23.8619

          k = 0.5347 0.2285 0.0000 (  8570 PWs)   bands (ev):

   -16.5658 -15.5250  -9.1574  -4.6092  -0.7013   5.5227   8.8449   9.0015
     9.5674   9.8637  10.1523  10.1650  10.8034  11.0536  11.4617  11.5012
    12.4878  13.1629  13.6125  13.6921  14.6201  16.1012  16.2235  16.6109
    17.2945  17.4678  19.5542  19.7484  19.8206  20.0776  21.7199  21.9441
    22.0123  23.1812  23.2446  23.4465

          k = 0.5417 0.2165 0.0000 (  8568 PWs)   bands (ev):

   -16.5337 -15.4936  -9.3116  -4.5635  -0.7149   5.7351   8.8887   9.0483
     9.5609   9.9155  10.2040  10.2169  10.8239  11.1056  11.5091  11.5508
    12.4620  13.2146  13.6467  13.7374  14.5564  16.1523  16.1561  16.6459
    17.2286  17.4812  19.6946  19.8329  19.8709  20.0661  21.4286  21.7632
    22.1302  22.5668  22.7030  23.2978

          k = 0.5486 0.2045 0.0000 (  8576 PWs)   bands (ev):

   -16.4956 -15.4568  -9.4873  -4.5095  -0.7322   5.9789   8.9401   9.1035
     9.5460   9.9767  10.2650  10.2782  10.8481  11.1670  11.5649  11.6093
    12.4348  13.2756  13.6857  13.7907  14.5020  16.0808  16.2127  16.6860
    17.1859  17.5085  19.8469  19.8852  19.9303  20.0386  20.8585  21.8136
    21.9492  21.9568  22.4797  23.0806

          k = 0.5556 0.1925 0.0000 (  8576 PWs)   bands (ev):

   -16.4518 -15.4148  -9.6819  -4.4472  -0.7540   6.2512   8.9991   9.1670
     9.5191  10.0474  10.3354  10.3489  10.8771  11.2378  11.6290  11.6767
    12.4101  13.3460  13.7284  13.8517  14.4626  16.0011  16.2824  16.7304
    17.1646  17.5500  19.8923  19.9488  19.9989  20.0082  20.3487  21.3400
    21.4602  21.8704  22.3573  22.6396

          k = 0.5625 0.1804 0.0000 (  8556 PWs)   bands (ev):

   -16.4020 -15.3677  -9.8929  -4.3767  -0.7811   6.5489   9.0654   9.2386
     9.4769  10.1275  10.4151  10.4290  10.9123  11.3181  11.7011  11.7528
    12.3927  13.4258  13.7738  13.9202  14.4421  15.9209  16.3613  16.7781
    17.1614  17.6055  19.5903  19.8246  20.0765  20.1025  20.1765  20.7418
    20.9719  21.9333  21.9850  22.0877

          k = 0.5694 0.1684 0.0000 (  8550 PWs)   bands (ev):

   -16.3465 -15.3158 -10.1177  -4.2980  -0.8142   6.8687   9.1388   9.3183
     9.4170  10.2169  10.5041  10.5185  10.9557  11.4079  11.7810  11.8377
    12.3875  13.5150  13.8204  13.9957  14.4420  15.8446  16.4495  16.8276
    17.1717  17.6742  19.0658  19.6315  19.9948  20.1631  20.1758  20.3502
    20.5500  21.5238  21.5771  22.0014

          k = 0.5764 0.1564 0.0000 (  8570 PWs)   bands (ev):

   -16.2851 -15.2596 -10.3537  -4.2111  -0.8542   7.2075   9.2191   9.3387
     9.4059  10.3158  10.6025  10.6174  11.0096  11.5070  11.8683  11.9311
    12.3983  13.6135  13.8663  14.0780  14.4620  15.7766  16.5469  16.8766
    17.1890  17.7554  18.5260  19.2921  19.5470  19.9668  20.1822  20.2588
    20.5279  20.9683  21.2415  22.0742

          k = 0.5833 0.1443 0.0000 (  8570 PWs)   bands (ev):

   -16.2179 -15.1994 -10.5985  -4.1160  -0.9022   7.5618   9.2434   9.3058
     9.5013  10.4241  10.7100  10.7257  11.0757  11.6156  11.9627  12.0330
    12.4274  13.7214  13.9095  14.1664  14.5006  15.7212  16.6536  16.9211
    17.2031  17.8486  17.9939  18.8652  18.9808  19.7974  19.8606  20.3636
    20.4387  20.7086  21.0011  22.1509

          k = 0.5903 0.1323 0.0000 (  8574 PWs)   bands (ev):

   -16.1449 -15.1359 -10.8495  -4.0128  -0.9589   7.9278   9.1346   9.3985
     9.6045  10.5417  10.8268  10.8433  11.1550  11.7336  12.0635  12.1431
    12.4755  13.8386  13.9480  14.2601  14.5554  15.6829  16.7694  16.9476
    17.1937  17.4848  17.9530  18.4202  18.4222  19.3758  19.6528  20.0158
    20.4773  20.7995  20.8913  22.0593

          k = 0.5972 0.1203 0.0000 (  8576 PWs)   bands (ev):

   -16.0661 -15.0699 -11.1042  -3.9014  -1.0255   8.3013   9.0169   9.4967
     9.7153  10.6687  10.9528  10.9702  11.2479  11.8611  12.1700  12.2613
    12.5419  13.9652  13.9803  14.3582  14.6236  15.6657  16.8280  16.8945
    17.1154  17.1255  17.8699  18.0224  18.0684  18.9483  19.2230  19.8207
    20.5564  20.5999  21.0749  21.5746

          k = 0.6042 0.1083 0.0000 (  8580 PWs)   bands (ev):

   -15.9814 -15.0027 -11.3600  -3.7821  -1.1028   8.6772   8.8957   9.5997
     9.8341  10.8052  11.0878  11.1064  11.3544  11.9980  12.2813  12.3872
    12.6252  14.0059  14.1011  14.4591  14.7013  15.6726  16.3920  16.8983
    17.0287  17.0759  17.3395  17.7142  18.1942  18.5642  18.7217  19.7078
    20.2370  20.7314  21.0828  21.2581

          k = 0.6111 0.0962 0.0000 (  8584 PWs)   bands (ev):

   -15.8910 -14.9359 -11.6140  -3.6547  -1.1915   8.7761   9.0490   9.7066
     9.9619  10.9509  11.2318  11.2520  11.4738  12.1442  12.3958  12.5205
    12.7237  14.0260  14.2464  14.5602  14.7822  15.7054  15.9156  16.5455
    16.7750  17.1126  17.1721  17.4383  18.2198  18.2933  18.3303  19.6102
    19.8655  20.6064  20.8718  21.4392

          k = 0.6181 0.0842 0.0000 (  8588 PWs)   bands (ev):

   -15.7948 -14.8718 -11.8625  -3.5193  -1.2925   8.6626   9.4067   9.8164
    10.1013  11.1061  11.3846  11.4067  11.6054  12.2999  12.5120  12.6606
    12.8352  14.0439  14.4009  14.6554  14.8537  15.4543  15.7641  16.1402
    16.2622  17.0897  17.0946  17.3246  17.7401  18.1586  18.4762  19.4854
    19.5006  20.1751  21.0210  21.4689

          k = 0.6250 0.0722 0.0000 (  8598 PWs)   bands (ev):

   -15.6928 -14.8137 -12.1012  -3.3761  -1.4060   8.5591   9.7349   9.9277
    10.2587  11.2706  11.5460  11.5707  11.7483  12.4650  12.6278  12.8065
    12.9569  14.0648  14.5648  14.7110  14.8818  15.0470  15.7558  15.7564
    15.8478  16.7014  16.9839  17.3520  17.4862  18.0745  18.6319  19.1470
    19.3045  19.8702  21.1790  21.3019

          k = 0.6319 0.0601 0.0000 (  8580 PWs)   bands (ev):

   -15.5851 -14.7667 -12.3243  -3.2249  -1.5325   8.4685  10.0105  10.0390
    10.4447  11.4444  11.7158  11.7437  11.9014  12.6395  12.7407  12.9567
    13.0846  14.0951  14.4975  14.7379  14.7803  14.9177  15.2729  15.4785
    15.9543  16.3154  16.6442  17.2060  17.6569  17.9286  18.7972  18.9192
    18.9641  19.7557  21.0520  21.3456

          k = 0.6389 0.0481 0.0000 (  8574 PWs)   bands (ev):

   -15.4716 -14.7373 -12.5243  -3.0660  -1.6720   8.3931  10.1482  10.2188
    10.6571  11.6275  11.8935  11.9256  12.0630  12.8233  12.8489  13.1067
    13.2095  14.1290  14.1416  14.5003  14.7407  14.9202  15.0306  15.3101
    16.0147  16.0815  16.2189  17.1620  17.6660  17.8366  18.5676  18.8362
    18.9717  19.7489  20.7441  21.5207

          k = 0.6458 0.0361 0.0000 (  8574 PWs)   bands (ev):

   -15.3524 -14.7342 -12.6919  -2.8994  -1.8244   8.3342  10.2532  10.3704
    10.8620  11.8200  12.0784  12.1156  12.2298  12.9515  13.0165  13.2417
    13.3074  13.7901  14.1592  14.2105  14.3064  15.0632  15.0673  15.1119
    15.8168  15.8954  16.2272  17.1287  17.3322  18.0253  18.1827  18.8408
    19.1553  19.7902  20.4197  21.2630

          k = 0.6528 0.0241 0.0000 (  8588 PWs)   bands (ev):

   -15.2275 -14.7668 -12.8172  -2.7251  -1.9893   8.2927  10.3511  10.4774
    11.0177  12.0217  12.2697  12.3124  12.3935  13.0504  13.2191  13.2812
    13.2971  13.5443  13.9003  13.9293  14.3055  14.7380  15.0183  15.3127
    15.5252  15.9005  16.3894  16.9954  17.0736  17.8566  18.2229  18.8560
    19.3477  19.8499  20.1247  20.8691

          k = 0.6597 0.0120 0.0000 (  8592 PWs)   bands (ev):

   -15.0969 -14.8420 -12.8927  -2.5432  -2.1660   8.2683  10.4391  10.5337
    11.1004  12.2327  12.4657  12.5130  12.5195  13.0590  13.1056  13.1502
    13.4006  13.4311  13.7831  13.8032  14.4280  14.4388  14.8015  15.4416
    15.5227  15.8893  16.5666  16.7328  16.9496  17.6543  18.4294  18.8084
    19.5486  19.8773  19.9191  20.5546

          k = 0.6667 0.0000 0.0000 (  8592 PWs)   bands (ev):

   -14.9607 -14.9607 -12.9170  -2.3538  -2.3538   8.2605  10.5142  10.5142
    11.1199  12.4529  12.4529  12.6642  12.6642  12.7443  12.9825  13.2587
    13.2587  13.6523  13.6523  13.8002  14.3231  14.5768  14.5768  15.4431
    15.7419  15.7419  16.6408  16.7575  16.7575  17.5989  18.6447  18.6447
    19.7575  19.7575  19.8521  20.4359

          k = 0.6500 0.0000 0.0000 (  8594 PWs)   bands (ev):

   -15.1528 -14.7897 -12.8860  -2.5926  -2.1168   8.2707  10.3565  10.5840
    11.1101  12.0697  12.1936  12.7294  12.9016  12.9308  12.9846  13.1386
    13.4131  13.4131  13.7462  13.9302  14.4032  14.5117  14.7862  15.4102
    15.4228  16.0170  16.5667  16.7186  17.0030  17.6435  18.3338  18.9145
    19.4460  19.9166  20.0177  20.5345

          k = 0.6333 0.0000 0.0000 (  8597 PWs)   bands (ev):

   -15.3848 -14.6107 -12.8029  -2.8441  -1.8694   8.2982  10.0701  10.6285
    11.0866  11.6161  11.6906  12.6677  12.7881  13.0190  13.1338  13.2433
    13.5118  13.6064  13.7394  14.2214  14.4661  14.5581  15.0248  15.1574
    15.3313  16.3052  16.5153  16.8473  17.2650  17.7278  18.0060  19.1473
    19.1968  20.0438  20.2859  20.7250

          k = 0.6167 0.0000 0.0000 (  8587 PWs)   bands (ev):

   -15.6425 -14.4237 -12.6818  -3.1066  -1.6116   8.3361   9.7085  10.6469
    11.0191  11.1619  11.2088  12.2365  12.4061  13.3218  13.3621  13.4543
    13.7065  13.8436  13.8638  14.3141  14.4619  14.5260  15.1688  15.2881
    15.3737  16.5481  16.6063  16.8877  17.5420  17.7942  17.8047  18.9662
    19.4913  20.1478  20.5573  20.9412

          k = 0.6000 0.0000 0.0000 (  8581 PWs)   bands (ev):

   -15.9152 -14.2287 -12.5328  -3.3779  -1.3438   8.3735   9.3105  10.6402
    10.6721  10.7245  10.9757  11.8025  11.9745  13.5946  13.6364  13.6378
    13.6802  13.9810  14.1192  14.2524  14.3145  14.8439  15.3552  15.5727
    15.5728  16.5420  16.7262  16.9204  17.8214  17.8324  17.8826  18.9452
    19.7978  20.1284  20.8205  21.1373

          k = 0.5833 0.0000 0.0000 (  8573 PWs)   bands (ev):

   -16.1958 -14.0258 -12.3628  -3.6563  -1.0662   8.3932   8.8969  10.1993
    10.3150  10.6112  10.8361  11.3891  11.5343  13.3505  13.5645  13.8395
    13.9667  14.0211  14.4245  14.4766  14.4902  15.1750  15.5533  15.8203
    15.8760  16.4319  16.4779  17.2472  18.0061  18.0231  18.1344  19.0392
    19.9422  20.1161  21.0447  21.2169

          k = 0.5667 0.0000 0.0000 (  8583 PWs)   bands (ev):

   -16.4796 -13.8152 -12.1765  -3.9396  -0.7789   8.3694   8.4789   9.7326
     9.9437  10.5633  10.6587  11.0133  11.1041  12.9659  13.2127  14.1014
    14.2446  14.3085  14.7530  14.7576  14.7917  15.5194  15.6135  15.9353
    16.1958  16.3716  16.3736  17.5867  18.2333  18.2338  18.4450  19.1643
    19.6788  20.4458  21.1480  21.1618

          k = 0.5500 0.0000 0.0000 (  8579 PWs)   bands (ev):

   -16.7633 -13.5968 -11.9770  -4.2263  -0.4824   8.0627   8.2718   9.2775
     9.6148  10.4265  10.5002  10.6967  10.7085  12.5876  12.8140  14.3811
    14.5186  14.6631  14.9721  15.1007  15.1252  15.5125  15.7166  15.8769
    16.5303  16.5303  16.6117  17.9387  18.4212  18.4530  18.7592  19.2658
    19.4564  20.7864  21.0988  21.1259

          k = 0.5333 0.0000 0.0000 (  8599 PWs)   bands (ev):

   -17.0448 -13.3708 -11.7664  -4.5146  -0.1770   7.6520   8.0835   8.8350
     9.3124  10.1060  10.3902  10.4250  10.4610  12.2370  12.4087  14.6772
    14.8097  14.8689  15.0303  15.3440  15.4652  15.5387  15.6427  16.2475
    16.8070  16.8772  16.9452  18.3030  18.4447  18.5748  19.0662  19.3810
    19.4215  20.9973  21.1375  21.1627

          k = 0.5167 0.0000 0.0000 (  8601 PWs)   bands (ev):

   -17.3226 -13.1374 -11.5464  -4.8030   0.1371   7.2492   7.8182   8.4056
     9.0058   9.7238  10.1301  10.3041  10.3405  11.9343  12.0068  14.5733
    14.9170  14.9869  15.2390  15.4099  15.8450  15.8850  15.9604  16.6311
    17.1043  17.2336  17.3057  18.2906  18.5080  18.6794  19.3415  19.6038
    19.6121  20.8582  21.3221  21.4985

          k = 0.5000 0.0000 0.0000 (  8593 PWs)   bands (ev):

   -17.5954 -12.8967 -11.3182  -5.0902   0.4594   6.8556   7.5054   7.9895
     8.6800   9.3301   9.8841  10.1817  10.2490  11.6125  11.7059  14.2528
    14.5990  15.3056  15.5443  15.8018  16.2389  16.2772  16.3175  17.0275
    17.3382  17.5941  17.6740  18.1462  18.3117  19.0675  19.5317  19.9094
    19.9170  20.7949  21.5156  21.8684

          k = 0.4833 0.0000 0.0000 (  8601 PWs)   bands (ev):

   -17.8624 -12.6487 -11.0829  -5.3749   0.7895   6.4724   7.1698   7.5867
     8.3397   8.9412   9.6403  10.0340  10.1522  11.2278  11.5749  13.9469
    14.2415  15.6262  15.9068  16.2055  16.6456  16.6616  16.6864  17.3714
    17.4367  17.9053  17.9469  18.2041  18.2346  19.4670  19.5788  20.2401
    20.2711  20.8949  21.6797  21.9518

          k = 0.4667 0.0000 0.0000 (  8623 PWs)   bands (ev):

   -18.1229 -12.3938 -10.8413  -5.6561   1.1270   6.1002   6.8264   7.1974
     7.9941   8.5620   9.3976   9.8303  10.0513  10.8540  11.5346  13.6765
    13.8847  15.9360  16.2893  16.6209  16.8312  17.0631  17.1087  17.3978
    17.6795  17.8584  18.2633  18.5360  18.5447  19.5353  19.8774  20.5564
    20.6376  21.1538  21.7585  21.7648

          k = 0.4500 0.0000 0.0000 (  8613 PWs)   bands (ev):

   -18.3765 -12.1321 -10.5944  -5.9328   1.4712   5.7396   6.4834   6.8217
     7.6498   8.1941   9.1570   9.5781   9.9475  10.4917  11.5404  13.4647
    13.5344  16.2115  16.6781  16.6811  17.0473  17.3635  17.4869  17.5704
    17.7077  18.2925  18.4846  18.9111  18.9618  19.5584  20.2982  20.7643
    20.9820  21.5050  21.6824  21.7729

          k = 0.4333 0.0000 0.0000 (  8625 PWs)   bands (ev):

   -18.6227 -11.8638 -10.3428  -6.2040   1.8217   5.3909   6.1457   6.4595
     7.3111   7.8384   8.9201   9.2978   9.8412  10.1417  11.5330  13.1933
    13.3394  16.4095  16.4322  16.9523  17.2099  17.4843  17.9047  18.0117
    18.1200  18.5965  18.7387  19.3062  19.3977  19.7636  20.7285  20.7526
    21.1950  21.8294  21.8583  21.9059

          k = 0.4167 0.0000 0.0000 (  8617 PWs)   bands (ev):

   -18.8611 -11.5892 -10.0875  -6.4691   2.1778   5.0545   5.8160   6.1109
     6.9807   7.4953   8.6879   9.0055   9.7329   9.8041  11.4668  12.8624
    13.3195  16.1835  16.4695  16.7132  17.5707  17.9309  18.2821  18.4781
    18.5604  18.7539  19.1968  19.6774  19.8449  20.1121  20.6390  21.1502
    21.1674  22.0947  22.2079  22.3380

          k = 0.4000 0.0000 0.0000 (  8609 PWs)   bands (ev):

   -19.0915 -11.3086  -9.8291  -6.7274   2.5387   4.7305   5.4959   5.7759
     6.6601   7.1651   8.4618   8.7110   9.4794   9.6229  11.3310  12.5427
    13.3933  15.9590  16.3578  16.4171  18.0053  18.3863  18.6042  18.9591
    19.0047  19.0880  19.6664  19.9047  20.2927  20.5324  20.6582  20.9815
    21.6137  22.4667  22.6235  22.7935

          k = 0.3833 0.0000 0.0000 (  8615 PWs)   bands (ev):

   -19.3136 -11.0224  -9.5685  -6.9782   2.9037   4.4192   5.1866   5.4545
     6.3505   6.8480   8.2425   8.4200   9.1677   9.5110  11.1432  12.2347
    13.5190  15.7804  16.1035  16.1237  18.4544  18.8490  18.9476  19.3856
    19.4532  19.5327  19.9393  20.1470  20.6060  20.9171  20.9584  20.9917
    22.0659  22.8602  23.0641  23.2683

          k = 0.3667 0.0000 0.0000 (  8601 PWs)   bands (ev):

   -19.5272 -10.7310  -9.3065  -7.2210   3.2719   4.1206   4.8888   5.1468
     6.0524   6.5441   8.0309   8.1358   8.8691   9.3971  10.9259  11.9387
    13.6435  15.6743  15.7593  15.8386  18.9105  19.3173  19.3441  19.4535
    19.9577  20.0219  20.1860  20.4594  20.6381  21.3130  21.3943  21.4769
    22.5222  23.2433  23.5021  23.7603

          k = 0.3500 0.0000 0.0000 (  8591 PWs)   bands (ev):

   -19.7321 -10.4348  -9.0439  -7.4554   3.6423   3.8349   4.6030   4.8527
     5.7664   6.2534   7.8276   7.8604   8.5839   9.2808  10.6955  11.6551
    13.7169  15.3640  15.5633  15.6703  19.3013  19.3628  19.7842  19.7886
    20.2215  20.4986  20.5358  20.6467  21.1391  21.7884  21.8750  21.9827
    22.9804  23.5925  23.8715  24.2685

          k = 0.3333 0.0000 0.0000 (  8579 PWs)   bands (ev):

   -19.9282 -10.1343  -8.7818  -7.6809   3.5622   4.0140   4.3296   4.5723
     5.4929   5.9761   7.5952   7.6332   8.3123   9.1613  10.4616  11.3840
    13.7111  14.9412  15.2990  15.7814  19.1184  19.7380  20.0859  20.2572
    20.2597  21.0230  21.0682  21.1591  21.6495  22.2697  22.3735  22.5063
    23.4384  23.8884  24.0094  24.7920

          k = 0.3167 0.0000 0.0000 (  8577 PWs)   bands (ev):

   -20.1153  -9.8302  -8.5211  -7.8971   3.3025   4.0688   4.3055   4.3855
     5.2320   5.7122   7.3410   7.4480   8.0543   9.0379  10.2302  11.1256
    13.6321  14.5052  15.0462  15.9876  18.9481  19.6827  20.3703  20.7261
    20.7562  21.5668  21.6169  21.6926  22.1685  22.7389  22.8658  23.0463
    23.8947  23.9520  24.1299  25.3029

          k = 0.3000 0.0000 0.0000 (  8581 PWs)   bands (ev):

   -20.2934  -9.5232  -8.2627  -8.1038   3.0560   3.8209   4.0524   4.7558
     4.9840   5.4617   7.0985   7.2723   7.8101   8.9095  10.0048  10.8799
    13.5046  14.0660  14.8053  16.2479  18.8116  19.4787  20.7910  21.1823
    21.2770  22.1210  22.1809  22.2353  22.6958  23.1729  23.2678  23.6018
    23.9446  24.3447  24.3495  25.2768

          k = 0.2833 0.0000 0.0000 (  8587 PWs)   bands (ev):

   -20.4623  -9.2141  -8.3005  -8.0079   2.8226   3.5859   3.8130   4.7490
     5.1233   5.2247   6.8680   7.1062   7.5800   8.7746   9.7875  10.6472
    13.3513  13.6313  14.5765  16.5161  18.7325  19.2687  21.1870  21.6216
    21.8170  22.6812  22.7576  22.7596  23.2313  23.3975  23.5462  24.1723
    24.2495  24.5528  24.8054  25.2190

          k = 0.2667 0.0000 0.0000 (  8591 PWs)   bands (ev):

   -20.6219  -8.9039  -8.4872  -7.7577   2.6024   3.3640   3.5873   4.5270
     5.0013   5.4865   6.6499   6.9497   7.3642   8.6317   9.5799  10.4274
    13.1869  13.2074  14.3602  16.7440  18.7431  19.0652  21.5167  22.0368
    22.3745  23.0494  23.2375  23.3526  23.5844  23.7758  23.8655  24.6482
    24.7573  24.7607  25.2682  25.3479

          k = 0.2500 0.0000 0.0000 (  8605 PWs)   bands (ev):

   -20.7722  -8.6635  -8.5936  -7.5134   2.3955   3.1553   3.3752   4.3183
     4.7913   5.8436   6.4444   6.8027   7.1633   8.4791   9.3828  10.2206
    12.7999  13.0203  14.1564  16.8893  18.8712  18.8747  21.7434  22.4216
    22.9484  22.9927  23.7622  23.9598  24.1003  24.1704  24.3308  24.6182
    25.3296  25.3568  25.7398  25.7460

          k = 0.2333 0.0000 0.0000 (  8601 PWs)   bands (ev):

   -20.9131  -8.8292  -8.2845  -7.2761   2.2018   2.9598   3.1768   4.1229
     4.5948   6.1929   6.2517   6.6645   6.9777   8.3152   9.1970  10.0268
    12.4142  12.8566  13.9653  16.9401  18.6877  19.1309  21.8478  22.7723
    22.8736  23.5379  24.1082  24.4141  24.5811  24.6948  24.8391  24.8986
    25.9231  25.9704  26.2462  26.2540

          k = 0.2167 0.0000 0.0000 (  8623 PWs)   bands (ev):

   -21.0444  -8.9842  -7.9782  -7.0473   2.0214   2.7777   2.9921   3.9407
     4.4119   6.0720   6.5324   6.5345   6.8083   8.1386   9.0230   9.8462
    12.0548  12.6992  13.7869  16.9183  18.5156  19.4817  21.8404  22.7580
    23.0891  24.0450  24.1424  24.8512  25.2164  25.3144  25.3570  25.4816
    26.5310  26.5981  26.7741  26.8247

          k = 0.2000 0.0000 0.0000 (  8641 PWs)   bands (ev):

   -21.1663  -9.1282  -7.6763  -6.8281   1.8544   2.6089   2.8211   3.7720
     4.2425   5.9053   6.4115   6.6562   6.8599   7.9485   8.8610   9.6787
    11.7257  12.5501  13.6214  16.8542  18.3553  19.8863  21.7494  22.6648
    23.3757  23.8968  24.7614  25.3740  25.8656  25.9495  25.9609  26.0816
    27.1439  27.2397  27.3315  27.3681

          k = 0.1833 0.0000 0.0000 (  8651 PWs)   bands (ev):

   -21.2785  -9.2612  -7.3809  -6.6200   1.7007   2.4535   2.6637   3.6166
     4.0867   5.7517   6.2945   6.5222   7.1733   7.7455   8.7114   9.5243
    11.4297  12.4106  13.4689  16.7698  18.2070  20.3068  21.6036  22.6116
    23.6386  23.7454  25.3946  25.9397  26.5286  26.5951  26.6010  26.6998
    27.2126  27.7621  27.8951  27.9175

          k = 0.1667 0.0000 0.0000 (  8645 PWs)   bands (ev):

   -21.3812  -9.3830  -7.0942  -6.4243   1.5603   2.3115   2.5200   3.4746
     3.9445   5.6113   6.1831   6.4067   7.4702   7.5314   8.5744   9.3832
    11.1684  12.2815  13.3293  16.6778  18.0710  20.7018  21.4256  22.6257
    23.6038  23.8850  26.0417  26.5381  27.0677  27.2055  27.2555  27.2641
    27.3363  28.3411  28.5300  28.5641

          k = 0.1500 0.0000 0.0000 (  8655 PWs)   bands (ev):

   -21.4741  -9.4935  -6.8188  -6.2423   1.4333   2.1830   2.3901   3.3462
     3.8158   5.4841   6.0777   6.3088   7.3096   7.7483   8.4501   9.2552
    10.9416  12.1637  13.2028  16.5859  17.9473  21.0207  21.2318  22.7483
    23.4752  24.1218  26.7022  26.9501  27.1624  27.8897  27.8962  27.9454
    27.9907  28.8123  29.1662  29.2468

          k = 0.1333 0.0000 0.0000 (  8673 PWs)   bands (ev):

   -21.5574  -9.5926  -6.5577  -6.0754   1.3197   2.0680   2.2738   3.2312
     3.7007   5.3702   5.9797   6.2269   7.0851   8.0052   8.3386   9.1406
    10.7483  12.0574  13.0895  16.4984  17.8363  21.0347  21.2233  23.0121
    23.3607  24.3545  26.8420  27.3758  27.8075  28.4463  28.6006  28.6428
    28.6625  29.1503  29.6332  29.8231

          k = 0.1167 0.0000 0.0000 (  8671 PWs)   bands (ev):

   -21.6309  -9.6803  -6.3143  -5.9248   1.2194   1.9665   2.1712   3.1296
     3.5991   5.2697   5.8906   6.1589   6.8641   8.2386   8.2401   9.0393
    10.5862  11.9631  12.9893  16.4179  17.7379  20.8436  21.3186  23.2603
    23.4007  24.5869  26.7485  28.0622  28.4696  28.7451  29.3187  29.3507
    29.3546  29.5388  29.6154  30.4957

          k = 0.1000 0.0000 0.0000 (  8679 PWs)   bands (ev):

   -21.6947  -9.7564  -6.0920  -5.7916   1.1325   1.8784   2.0822   3.0416
     3.5111   5.1825   5.8117   6.1031   6.6534   8.1546   8.4461   8.9514
    10.4526  11.8810  12.9023  16.3460  17.6524  20.6657  21.3476  23.1738
    23.8639  24.8203  26.6712  28.7608  28.8348  29.1442  29.4568  30.0506
    30.0541  30.0823  30.2588  30.9941

          k = 0.0833 0.0000 0.0000 (  8683 PWs)   bands (ev):

   -21.7487  -9.8208  -5.8948  -5.6770   1.0590   1.8039   2.0070   2.9672
     3.4366   5.1087   5.7440   6.0581   6.4600   8.0821   8.6258   8.8768
    10.3448  11.8112  12.8286  16.2840  17.5797  20.5068  21.3448  23.1010
    24.3548  25.0536  26.6121  28.8689  29.3819  29.4708  29.8363  30.5799
    30.7720  30.7960  30.8223  30.9667

          k = 0.0667 0.0000 0.0000 (  8687 PWs)   bands (ev):

   -21.7929  -9.8737  -5.7264  -5.5818   0.9989   1.7430   1.9455   2.9062
     3.3757   5.0483   5.6880   6.0227   6.2907   8.0228   8.7756   8.8158
    10.2601  11.7540  12.7682  16.2325  17.5201  20.3711  21.3293  23.0417
    24.8344  25.2815  26.5750  28.9023  29.3257  30.1615  30.1909  30.5289
    31.5008  31.5548  31.5751  31.6982

          k = 0.0500 0.0000 0.0000 (  8671 PWs)   bands (ev):

   -21.8273  -9.9148  -5.5907  -5.5070   0.9521   1.6956   1.8976   2.8588
     3.3283   5.0013   5.6442   5.9961   6.1517   7.9766   8.7682   8.8940
    10.1966  11.7094  12.7212  16.1920  17.4736  20.2623  21.3112  22.9957
    25.2619  25.4937  26.5667  28.9584  29.2814  29.7909  30.9187  31.2213
    31.6735  32.2375  32.3265  32.3376

          k = 0.0333 0.0000 0.0000 (  8679 PWs)   bands (ev):

   -21.8518  -9.9442  -5.4911  -5.4530   0.9187   1.6617   1.8634   2.8249
     3.2945   4.9677   5.6127   5.9775   6.0483   7.9436   8.7342   8.9795
    10.1523  11.6775  12.6876  16.1629  17.4403  20.1828  21.2956  22.9630
    25.5898  25.6733  26.5934  29.0500  29.2497  29.4937  31.1484  31.6477
    31.8959  32.9713  33.0875  33.1088

          k = 0.0167 0.0000 0.0000 (  8663 PWs)   bands (ev):

   -21.8666  -9.9619  -5.4301  -5.4204   0.8987   1.6413   1.8429   2.8046
     3.2742   4.9475   5.5938   5.9666   5.9845   7.9238   8.7138   9.0313
    10.1263  11.6583  12.6674  16.1454  17.4203  20.1343  21.2854  22.9434
    25.7820  25.7971  26.6431  29.1654  29.2307  29.2977  30.7372  32.3547
    32.5023  33.3661  33.4589  33.6579

          k = 0.0000 0.0000 0.0000 (  8675 PWs)   bands (ev):

   -21.8715  -9.9677  -5.4096  -5.4096   0.8920   1.6346   1.8360   2.7978
     3.2674   4.9408   5.5875   5.9630   5.9630   7.9172   8.7070   9.0486
    10.1177  11.6519  12.6606  16.1395  17.4137  20.1181  21.2819  22.9368
    25.8418  25.8418  26.6699  29.2243  29.2287  29.2287  30.5687  32.8242
    32.8242  33.3252  33.3252  33.8168

     Writing all to output data dir ./graphene.save/
 
     init_run     :      2.40s CPU      3.03s WALL (       1 calls)
     electrons    :     37.65s CPU     45.30s WALL (       1 calls)

     Called by init_run:
     wfcinit      :      0.00s CPU      0.06s WALL (       1 calls)
     wfcinit:atom :      0.01s CPU      0.01s WALL (      15 calls)
     wfcinit:wfcr :      0.69s CPU      1.73s WALL (      15 calls)
     potinit      :      1.66s CPU      1.97s WALL (       1 calls)
     hinit0       :      0.13s CPU      0.33s WALL (       1 calls)

     Called by electrons:
     c_bands      :     37.57s CPU     45.21s WALL (       1 calls)
     v_of_rho     :      0.06s CPU      0.08s WALL (       1 calls)
     v_h          :      0.00s CPU      0.00s WALL (       1 calls)
     v_xc         :      0.06s CPU      0.07s WALL (       1 calls)
     newd         :      0.10s CPU      0.13s WALL (       1 calls)
     PAW_pot      :      0.43s CPU      0.56s WALL (       1 calls)

     Called by c_bands:
     init_us_2    :      0.01s CPU      0.02s WALL (      15 calls)
     init_us_2:cp :      0.01s CPU      0.02s WALL (      15 calls)
     cegterg      :     25.57s CPU     31.46s WALL (      48 calls)

     Called by sum_band:

     Called by *egterg:
     cdiaghg      :      1.78s CPU      2.17s WALL (     817 calls)
     cegterg:over :      2.30s CPU      2.50s WALL (     802 calls)
     cegterg:upda :      2.87s CPU      3.36s WALL (     802 calls)
     cegterg:last :      5.69s CPU      6.37s WALL (     348 calls)
     cdiaghg:chol :      0.13s CPU      0.14s WALL (     817 calls)
     cdiaghg:inve :      0.03s CPU      0.03s WALL (     817 calls)
     cdiaghg:para :      0.20s CPU      0.21s WALL (    1634 calls)
     h_psi        :     12.29s CPU     17.30s WALL (     865 calls)
     s_psi        :      0.29s CPU      0.31s WALL (     865 calls)
     g_psi        :      0.18s CPU      0.20s WALL (     802 calls)

     Called by h_psi:
     h_psi:calbec :      0.52s CPU      0.55s WALL (     865 calls)
     vloc_psi     :     10.97s CPU     15.89s WALL (     865 calls)
     add_vuspsi   :      0.52s CPU      0.55s WALL (     865 calls)

     General routines
     calbec       :      0.51s CPU      0.55s WALL (     865 calls)
     fft          :      0.02s CPU      0.22s WALL (      13 calls)
     ffts         :      0.00s CPU      0.00s WALL (       1 calls)
     fftw         :      9.21s CPU     13.24s WALL (   26970 calls)
     interpolate  :      0.01s CPU      0.01s WALL (       1 calls)
     davcio       :      0.01s CPU      0.32s WALL (      30 calls)
 
     Parallel routines

     PAW routines
     PAW_pot      :      0.43s CPU      0.56s WALL (       1 calls)
 
     PWSCF        :     41.29s CPU     56.09s WALL

 
   This run was terminated on:  12:50: 4  25Jun2022            

=------------------------------------------------------------------------------=
   JOB DONE.
=------------------------------------------------------------------------------=
