
     Program PROJWFC v.7.0 starts on 25Jun2022 at 12:51:13 

     This program is part of the open-source Quantum ESPRESSO suite
     for quantum simulation of materials; please cite
         "P. Giannozzi et al., J. Phys.:Condens. Matter 21 395502 (2009);
         "P. Giannozzi et al., J. Phys.:Condens. Matter 29 465901 (2017);
         "P. Giannozzi et al., J. Chem. Phys. 152 154105 (2020);
          URL http://www.quantum-espresso.org", 
     in publications or presentations arising from this work. More details at
     http://www.quantum-espresso.org/quote

     Parallel version (MPI & OpenMP), running on      28 processor cores
     Number of MPI processes:                28
     Threads/MPI process:                     1

     MPI processes distributed on     1 nodes
     K-points division:     npool     =       7
     R & G space division:  proc/nbgrp/npool/nimage =       4
     54511 MiB available memory on the printing compute node when the environment starts
 

     Reading xml data from directory:

     ./graphene.save/
     file C.pbe-n-kjpaw_psl.1.0.0.UPF: wavefunction(s)  2S 2P renormalized

     IMPORTANT: XC functional enforced from input :
     Exchange-correlation= PBE
                           (   1   4   3   4   0   0   0)
     Any further DFT definition will be discarded
     Please, verify this is what you really want

 
     Parallelization info
     --------------------
     sticks:   dense  smooth     PW     G-vecs:    dense   smooth      PW
     Min         180     118     37                31568    17152    2875
     Max         181     119     38                31589    17183    2888
     Sum         721     475    151               126311    68693   11537
 
     Using Slab Decomposition
 

     negative rho (up, down):  1.103E-04 0.000E+00

     Gaussian broadening (read from file): ngauss,degauss=   1    0.010000


     Calling projwave .... 

     Subspace diagonalization in iterative solution of the eigenvalue problem:
     one sub-group per band group will be used
     scalapack distributed-memory algorithm (size of sub-group:  2*  2 procs)

     linear algebra parallelized on   4 procs
 
  Problem Sizes 
  natomwfc =            8
  nx       =            4
  nbnd     =           36
  nkstot   =          105
  npwx     =         2158
  nkb      =           16
 

     Atomic states used for projection
     (read from pseudopotential files):

     state #   1: atom   1 (C  ), wfc  1 (l=0 m= 1)
     state #   2: atom   1 (C  ), wfc  2 (l=1 m= 1)
     state #   3: atom   1 (C  ), wfc  2 (l=1 m= 2)
     state #   4: atom   1 (C  ), wfc  2 (l=1 m= 3)
     state #   5: atom   2 (C  ), wfc  1 (l=0 m= 1)
     state #   6: atom   2 (C  ), wfc  2 (l=1 m= 1)
     state #   7: atom   2 (C  ), wfc  2 (l=1 m= 2)
     state #   8: atom   2 (C  ), wfc  2 (l=1 m= 3)

 k =   0.0000000000  0.0000000000  0.0000000000
==== e(   1) =   -21.87150 eV ==== 
     psi = 0.492*[#   1]+0.492*[#   5]
    |psi|^2 = 0.984
==== e(   2) =    -9.96774 eV ==== 
     psi = 0.473*[#   2]+0.473*[#   6]
    |psi|^2 = 0.946
==== e(   3) =    -5.40956 eV ==== 
     psi = 0.461*[#   4]+0.461*[#   8]+0.038*[#   3]+0.038*[#   7]
    |psi|^2 = 0.997
==== e(   4) =    -5.40956 eV ==== 
     psi = 0.461*[#   3]+0.461*[#   7]+0.038*[#   4]+0.038*[#   8]
    |psi|^2 = 0.997
==== e(   5) =     0.89200 eV ==== 
     psi = 0.003*[#   1]+0.003*[#   5]
    |psi|^2 = 0.007
==== e(   6) =     1.63457 eV ==== 
     psi = 0.010*[#   2]+0.010*[#   6]
    |psi|^2 = 0.019
==== e(   7) =     1.83602 eV ==== 
 
    |psi|^2 = 0.001
==== e(   8) =     2.79783 eV ==== 
     psi = 0.006*[#   2]+0.006*[#   6]
    |psi|^2 = 0.013
==== e(   9) =     3.26740 eV ==== 
 
    |psi|^2 = 0.002
==== e(  10) =     4.94080 eV ==== 
     psi = 0.005*[#   2]+0.005*[#   6]
    |psi|^2 = 0.010
==== e(  11) =     5.58746 eV ==== 
 
    |psi|^2 = 0.002
==== e(  12) =     5.96300 eV ==== 
     psi = 0.475*[#   4]+0.475*[#   8]
    |psi|^2 = 0.951
==== e(  13) =     5.96300 eV ==== 
     psi = 0.475*[#   3]+0.475*[#   7]
    |psi|^2 = 0.951
==== e(  14) =     7.91717 eV ==== 
     psi = 0.003*[#   2]+0.003*[#   6]
    |psi|^2 = 0.006
==== e(  15) =     8.70700 eV ==== 
 
    |psi|^2 = 0.001
==== e(  16) =     9.04858 eV ==== 
     psi = 0.498*[#   2]+0.498*[#   6]
    |psi|^2 = 0.995
==== e(  17) =    10.11768 eV ==== 
     psi = 0.489*[#   1]+0.489*[#   5]
    |psi|^2 = 0.979
==== e(  18) =    11.65192 eV ==== 
     psi = 0.002*[#   2]+0.002*[#   6]
    |psi|^2 = 0.003
==== e(  19) =    12.66065 eV ==== 
 
    |psi|^2 = 0.001
==== e(  20) =    16.13951 eV ==== 
 
    |psi|^2 = 0.002
==== e(  21) =    17.41366 eV ==== 
 
    |psi|^2 = 0.001
==== e(  22) =    20.11809 eV ==== 
 
    |psi|^2 = 0.001
==== e(  23) =    21.28185 eV ==== 
 
    |psi|^2 = 0.001
==== e(  24) =    22.93682 eV ==== 
 
    |psi|^2 = 0.000
==== e(  25) =    25.84180 eV ==== 
 
    |psi|^2 = 0.000
==== e(  26) =    25.84180 eV ==== 
 
    |psi|^2 = 0.000
==== e(  27) =    26.66990 eV ==== 
 
    |psi|^2 = 0.000
==== e(  28) =    29.22431 eV ==== 
 
    |psi|^2 = 0.000
==== e(  29) =    29.22866 eV ==== 
 
    |psi|^2 = 0.000
==== e(  30) =    29.22866 eV ==== 
 
    |psi|^2 = 0.000
==== e(  31) =    30.56870 eV ==== 
 
    |psi|^2 = 0.000
==== e(  32) =    32.82420 eV ==== 
 
    |psi|^2 = 0.000
==== e(  33) =    32.82420 eV ==== 
 
    |psi|^2 = 0.000
==== e(  34) =    33.32525 eV ==== 
     psi = 0.003*[#   4]+0.003*[#   8]
    |psi|^2 = 0.005
==== e(  35) =    33.32525 eV ==== 
     psi = 0.003*[#   3]+0.003*[#   7]
    |psi|^2 = 0.005
==== e(  36) =    33.81681 eV ==== 
     psi = 0.003*[#   1]+0.003*[#   5]
    |psi|^2 = 0.006

 k =   0.0125000000  0.0072168784  0.0000000000
==== e(   1) =   -21.86781 eV ==== 
     psi = 0.491*[#   1]+0.491*[#   5]
    |psi|^2 = 0.984
==== e(   2) =    -9.96332 eV ==== 
     psi = 0.473*[#   2]+0.473*[#   6]
    |psi|^2 = 0.946
==== e(   3) =    -5.42498 eV ==== 
     psi = 0.374*[#   3]+0.374*[#   7]+0.125*[#   4]+0.125*[#   8]
    |psi|^2 = 0.997
==== e(   4) =    -5.41772 eV ==== 
     psi = 0.374*[#   4]+0.374*[#   8]+0.125*[#   3]+0.125*[#   7]
    |psi|^2 = 0.997
==== e(   5) =     0.89701 eV ==== 
     psi = 0.003*[#   1]+0.003*[#   5]
    |psi|^2 = 0.007
==== e(   6) =     1.63965 eV ==== 
     psi = 0.010*[#   2]+0.010*[#   6]
    |psi|^2 = 0.019
==== e(   7) =     1.84115 eV ==== 
 
    |psi|^2 = 0.001
==== e(   8) =     2.80291 eV ==== 
     psi = 0.006*[#   2]+0.006*[#   6]
    |psi|^2 = 0.013
==== e(   9) =     3.27247 eV ==== 
 
    |psi|^2 = 0.002
==== e(  10) =     4.94584 eV ==== 
     psi = 0.005*[#   2]+0.005*[#   6]
    |psi|^2 = 0.010
==== e(  11) =     5.59220 eV ==== 
 
    |psi|^2 = 0.002
==== e(  12) =     5.96569 eV ==== 
     psi = 0.355*[#   3]+0.355*[#   7]+0.118*[#   4]+0.118*[#   8]
    |psi|^2 = 0.949
==== e(  13) =     5.97920 eV ==== 
     psi = 0.356*[#   4]+0.356*[#   8]+0.119*[#   3]+0.119*[#   7]
    |psi|^2 = 0.950
==== e(  14) =     7.92212 eV ==== 
     psi = 0.003*[#   2]+0.003*[#   6]
    |psi|^2 = 0.006
==== e(  15) =     8.71210 eV ==== 
 
    |psi|^2 = 0.002
==== e(  16) =     9.03559 eV ==== 
     psi = 0.498*[#   2]+0.498*[#   6]
    |psi|^2 = 0.995
==== e(  17) =    10.12413 eV ==== 
     psi = 0.489*[#   1]+0.489*[#   5]
    |psi|^2 = 0.979
==== e(  18) =    11.65671 eV ==== 
     psi = 0.002*[#   2]+0.002*[#   6]
    |psi|^2 = 0.003
==== e(  19) =    12.66569 eV ==== 
 
    |psi|^2 = 0.001
==== e(  20) =    16.14391 eV ==== 
 
    |psi|^2 = 0.002
==== e(  21) =    17.41866 eV ==== 
 
    |psi|^2 = 0.001
==== e(  22) =    20.13028 eV ==== 
 
    |psi|^2 = 0.001
==== e(  23) =    21.28451 eV ==== 
 
    |psi|^2 = 0.001
==== e(  24) =    22.94172 eV ==== 
 
    |psi|^2 = 0.000
==== e(  25) =    25.79891 eV ==== 
 
    |psi|^2 = 0.000
==== e(  26) =    25.80645 eV ==== 
 
    |psi|^2 = 0.000
==== e(  27) =    26.64927 eV ==== 
 
    |psi|^2 = 0.000
==== e(  28) =    29.17950 eV ==== 
 
    |psi|^2 = 0.000
==== e(  29) =    29.22907 eV ==== 
 
    |psi|^2 = 0.000
==== e(  30) =    29.28052 eV ==== 
 
    |psi|^2 = 0.000
==== e(  31) =    30.69718 eV ==== 
 
    |psi|^2 = 0.000
==== e(  32) =    32.42115 eV ==== 
 
    |psi|^2 = 0.002
==== e(  33) =    32.60866 eV ==== 
 
    |psi|^2 = 0.001
==== e(  34) =    33.26414 eV ==== 
     psi = 0.001*[#   3]+0.001*[#   7]
    |psi|^2 = 0.004
==== e(  35) =    33.54817 eV ==== 
     psi = 0.002*[#   4]+0.002*[#   8]
    |psi|^2 = 0.004
==== e(  36) =    33.72456 eV ==== 
 
    |psi|^2 = 0.001

 k =   0.0250000000  0.0144337567  0.0000000000
==== e(   1) =   -21.85675 eV ==== 
     psi = 0.489*[#   1]+0.489*[#   5]+0.002*[#   3]+0.002*[#   7]
    |psi|^2 = 0.984
==== e(   2) =    -9.95009 eV ==== 
     psi = 0.473*[#   2]+0.473*[#   6]
    |psi|^2 = 0.946
==== e(   3) =    -5.47099 eV ==== 
     psi = 0.373*[#   3]+0.373*[#   7]+0.124*[#   4]+0.124*[#   8]+0.002*[#   1]
          +0.002*[#   5]
    |psi|^2 = 0.997
==== e(   4) =    -5.44202 eV ==== 
     psi = 0.374*[#   4]+0.374*[#   8]+0.125*[#   3]+0.125*[#   7]
    |psi|^2 = 0.997
==== e(   5) =     0.91204 eV ==== 
     psi = 0.003*[#   1]+0.003*[#   5]
    |psi|^2 = 0.008
==== e(   6) =     1.65490 eV ==== 
     psi = 0.010*[#   2]+0.010*[#   6]
    |psi|^2 = 0.019
==== e(   7) =     1.85654 eV ==== 
 
    |psi|^2 = 0.001
==== e(   8) =     2.81816 eV ==== 
     psi = 0.006*[#   2]+0.006*[#   6]
    |psi|^2 = 0.013
==== e(   9) =     3.28770 eV ==== 
 
    |psi|^2 = 0.002
==== e(  10) =     4.96095 eV ==== 
     psi = 0.005*[#   2]+0.005*[#   6]
    |psi|^2 = 0.009
==== e(  11) =     5.60640 eV ==== 
     psi = 0.001*[#   1]+0.001*[#   5]
    |psi|^2 = 0.004
==== e(  12) =     5.97347 eV ==== 
     psi = 0.353*[#   3]+0.353*[#   7]+0.118*[#   4]+0.118*[#   8]+0.003*[#   1]
          +0.003*[#   5]
    |psi|^2 = 0.946
==== e(  13) =     6.02761 eV ==== 
     psi = 0.356*[#   4]+0.356*[#   8]+0.119*[#   3]+0.119*[#   7]
    |psi|^2 = 0.950
==== e(  14) =     7.93698 eV ==== 
     psi = 0.003*[#   2]+0.003*[#   6]
    |psi|^2 = 0.006
==== e(  15) =     8.72741 eV ==== 
 
    |psi|^2 = 0.002
==== e(  16) =     8.99674 eV ==== 
     psi = 0.497*[#   2]+0.497*[#   6]
    |psi|^2 = 0.995
==== e(  17) =    10.14361 eV ==== 
     psi = 0.488*[#   1]+0.488*[#   5]+0.001*[#   3]+0.001*[#   7]
    |psi|^2 = 0.978
==== e(  18) =    11.67109 eV ==== 
     psi = 0.002*[#   2]+0.002*[#   6]
    |psi|^2 = 0.003
==== e(  19) =    12.68083 eV ==== 
 
    |psi|^2 = 0.001
==== e(  20) =    16.15708 eV ==== 
 
    |psi|^2 = 0.002
==== e(  21) =    17.43367 eV ==== 
 
    |psi|^2 = 0.001
==== e(  22) =    20.16667 eV ==== 
 
    |psi|^2 = 0.001
==== e(  23) =    21.29228 eV ==== 
 
    |psi|^2 = 0.001
==== e(  24) =    22.95643 eV ==== 
 
    |psi|^2 = 0.000
==== e(  25) =    25.67749 eV ==== 
 
    |psi|^2 = 0.000
==== e(  26) =    25.68975 eV ==== 
 
    |psi|^2 = 0.001
==== e(  27) =    26.60683 eV ==== 
 
    |psi|^2 = 0.000
==== e(  28) =    29.08154 eV ==== 
 
    |psi|^2 = 0.000
==== e(  29) =    29.24335 eV ==== 
 
    |psi|^2 = 0.000
==== e(  30) =    29.42870 eV ==== 
 
    |psi|^2 = 0.000
==== e(  31) =    31.02279 eV ==== 
 
    |psi|^2 = 0.000
==== e(  32) =    31.75371 eV ==== 
 
    |psi|^2 = 0.003
==== e(  33) =    32.25730 eV ==== 
 
    |psi|^2 = 0.002
==== e(  34) =    32.97678 eV ==== 
 
    |psi|^2 = 0.003
==== e(  35) =    33.06278 eV ==== 
 
    |psi|^2 = 0.000
==== e(  36) =    33.13142 eV ==== 
 
    |psi|^2 = 0.001

 k =   0.0375000000  0.0216506351  0.0000000000
==== e(   1) =   -21.83832 eV ==== 
     psi = 0.486*[#   1]+0.486*[#   5]+0.005*[#   3]+0.005*[#   7]+0.002*[#   4]
          +0.002*[#   8]
    |psi|^2 = 0.984
==== e(   2) =    -9.92803 eV ==== 
     psi = 0.473*[#   2]+0.473*[#   6]
    |psi|^2 = 0.947
==== e(   3) =    -5.54691 eV ==== 
     psi = 0.371*[#   3]+0.371*[#   7]+0.124*[#   4]+0.124*[#   8]+0.004*[#   1]
          +0.004*[#   5]
    |psi|^2 = 0.997
==== e(   4) =    -5.48198 eV ==== 
     psi = 0.374*[#   4]+0.374*[#   8]+0.125*[#   3]+0.125*[#   7]
    |psi|^2 = 0.997
==== e(   5) =     0.93709 eV ==== 
     psi = 0.003*[#   1]+0.003*[#   5]+0.002*[#   3]+0.002*[#   7]
    |psi|^2 = 0.010
==== e(   6) =     1.68031 eV ==== 
     psi = 0.009*[#   2]+0.009*[#   6]
    |psi|^2 = 0.019
==== e(   7) =     1.88218 eV ==== 
 
    |psi|^2 = 0.001
==== e(   8) =     2.84356 eV ==== 
     psi = 0.006*[#   2]+0.006*[#   6]
    |psi|^2 = 0.013
==== e(   9) =     3.31307 eV ==== 
 
    |psi|^2 = 0.002
==== e(  10) =     4.98614 eV ==== 
     psi = 0.005*[#   2]+0.005*[#   6]
    |psi|^2 = 0.009
==== e(  11) =     5.63001 eV ==== 
     psi = 0.002*[#   3]+0.002*[#   7]+0.001*[#   1]+0.001*[#   5]
    |psi|^2 = 0.007
==== e(  12) =     5.98562 eV ==== 
     psi = 0.348*[#   3]+0.348*[#   7]+0.116*[#   4]+0.116*[#   8]+0.006*[#   1]
          +0.006*[#   5]
    |psi|^2 = 0.940
==== e(  13) =     6.10771 eV ==== 
     psi = 0.356*[#   4]+0.356*[#   8]+0.119*[#   3]+0.119*[#   7]
    |psi|^2 = 0.950
==== e(  14) =     7.96174 eV ==== 
     psi = 0.003*[#   2]+0.003*[#   6]
    |psi|^2 = 0.006
==== e(  15) =     8.75292 eV ==== 
 
    |psi|^2 = 0.002
==== e(  16) =     8.93238 eV ==== 
     psi = 0.497*[#   2]+0.497*[#   6]
    |psi|^2 = 0.994
==== e(  17) =    10.17649 eV ==== 
     psi = 0.485*[#   1]+0.485*[#   5]+0.003*[#   3]+0.003*[#   7]
    |psi|^2 = 0.978
==== e(  18) =    11.69503 eV ==== 
     psi = 0.001*[#   2]+0.001*[#   6]
    |psi|^2 = 0.003
==== e(  19) =    12.70605 eV ==== 
 
    |psi|^2 = 0.001
==== e(  20) =    16.17896 eV ==== 
 
    |psi|^2 = 0.002
==== e(  21) =    17.45865 eV ==== 
 
    |psi|^2 = 0.001
==== e(  22) =    20.22668 eV ==== 
 
    |psi|^2 = 0.002
==== e(  23) =    21.30443 eV ==== 
 
    |psi|^2 = 0.001
==== e(  24) =    22.98098 eV ==== 
 
    |psi|^2 = 0.000
==== e(  25) =    25.47743 eV ==== 
 
    |psi|^2 = 0.002
==== e(  26) =    25.49474 eV ==== 
 
    |psi|^2 = 0.000
==== e(  27) =    26.57987 eV ==== 
 
    |psi|^2 = 0.000
==== e(  28) =    28.99600 eV ==== 
 
    |psi|^2 = 0.000
==== e(  29) =    29.26715 eV ==== 
 
    |psi|^2 = 0.000
==== e(  30) =    29.65553 eV ==== 
 
    |psi|^2 = 0.000
==== e(  31) =    31.04349 eV ==== 
 
    |psi|^2 = 0.003
==== e(  32) =    31.45593 eV ==== 
 
    |psi|^2 = 0.000
==== e(  33) =    31.89364 eV ==== 
 
    |psi|^2 = 0.002
==== e(  34) =    32.31119 eV ==== 
 
    |psi|^2 = 0.000
==== e(  35) =    32.32144 eV ==== 
 
    |psi|^2 = 0.000
==== e(  36) =    32.67854 eV ==== 
 
    |psi|^2 = 0.003

 k =   0.0500000000  0.0288675135  0.0000000000
==== e(   1) =   -21.81252 eV ==== 
     psi = 0.481*[#   1]+0.481*[#   5]+0.008*[#   3]+0.008*[#   7]+0.003*[#   4]
          +0.003*[#   8]
    |psi|^2 = 0.984
==== e(   2) =    -9.89717 eV ==== 
     psi = 0.474*[#   2]+0.474*[#   6]
    |psi|^2 = 0.948
==== e(   3) =    -5.65167 eV ==== 
     psi = 0.369*[#   3]+0.369*[#   7]+0.123*[#   4]+0.123*[#   8]+0.006*[#   1]
          +0.006*[#   5]
    |psi|^2 = 0.997
==== e(   4) =    -5.53684 eV ==== 
     psi = 0.374*[#   4]+0.374*[#   8]+0.125*[#   3]+0.125*[#   7]
    |psi|^2 = 0.997
==== e(   5) =     0.97217 eV ==== 
     psi = 0.003*[#   3]+0.003*[#   7]+0.002*[#   1]+0.002*[#   5]
    |psi|^2 = 0.012
==== e(   6) =     1.71588 eV ==== 
     psi = 0.009*[#   2]+0.009*[#   6]
    |psi|^2 = 0.019
==== e(   7) =     1.91809 eV ==== 
 
    |psi|^2 = 0.001
==== e(   8) =     2.87912 eV ==== 
     psi = 0.006*[#   2]+0.006*[#   6]
    |psi|^2 = 0.013
==== e(   9) =     3.34860 eV ==== 
 
    |psi|^2 = 0.002
==== e(  10) =     5.02140 eV ==== 
     psi = 0.005*[#   2]+0.005*[#   6]
    |psi|^2 = 0.009
==== e(  11) =     5.66289 eV ==== 
     psi = 0.003*[#   3]+0.003*[#   7]+0.002*[#   1]+0.002*[#   5]+0.001*[#   4]
          +0.001*[#   8]
    |psi|^2 = 0.012
==== e(  12) =     6.00103 eV ==== 
     psi = 0.341*[#   3]+0.341*[#   7]+0.114*[#   4]+0.114*[#   8]+0.011*[#   1]
          +0.011*[#   5]
    |psi|^2 = 0.931
==== e(  13) =     6.21870 eV ==== 
     psi = 0.356*[#   4]+0.356*[#   8]+0.119*[#   3]+0.119*[#   7]
    |psi|^2 = 0.949
==== e(  14) =     7.99638 eV ==== 
     psi = 0.003*[#   2]+0.003*[#   6]
    |psi|^2 = 0.006
==== e(  15) =     8.78859 eV ==== 
 
    |psi|^2 = 0.003
==== e(  16) =     8.84304 eV ==== 
     psi = 0.496*[#   2]+0.496*[#   6]
    |psi|^2 = 0.992
==== e(  17) =    10.22331 eV ==== 
     psi = 0.482*[#   1]+0.482*[#   5]+0.005*[#   3]+0.005*[#   7]+0.002*[#   4]
          +0.002*[#   8]
    |psi|^2 = 0.978
==== e(  18) =    11.72852 eV ==== 
     psi = 0.001*[#   2]+0.001*[#   6]
    |psi|^2 = 0.003
==== e(  19) =    12.74133 eV ==== 
 
    |psi|^2 = 0.001
==== e(  20) =    16.20944 eV ==== 
 
    |psi|^2 = 0.002
==== e(  21) =    17.49356 eV ==== 
 
    |psi|^2 = 0.001
==== e(  22) =    20.30930 eV ==== 
 
    |psi|^2 = 0.003
==== e(  23) =    21.31967 eV ==== 
 
    |psi|^2 = 0.001
==== e(  24) =    23.01541 eV ==== 
 
    |psi|^2 = 0.000
==== e(  25) =    25.17931 eV ==== 
     psi = 0.001*[#   2]+0.001*[#   6]
    |psi|^2 = 0.003
==== e(  26) =    25.26942 eV ==== 
 
    |psi|^2 = 0.000
==== e(  27) =    26.58695 eV ==== 
 
    |psi|^2 = 0.001
==== e(  28) =    28.94217 eV ==== 
 
    |psi|^2 = 0.000
==== e(  29) =    29.30043 eV ==== 
 
    |psi|^2 = 0.000
==== e(  30) =    29.94122 eV ==== 
 
    |psi|^2 = 0.000
==== e(  31) =    30.32374 eV ==== 
     psi = 0.001*[#   1]+0.001*[#   5]
    |psi|^2 = 0.003
==== e(  32) =    31.53311 eV ==== 
 
    |psi|^2 = 0.002
==== e(  33) =    31.53417 eV ==== 
 
    |psi|^2 = 0.000
==== e(  34) =    31.56413 eV ==== 
 
    |psi|^2 = 0.000
==== e(  35) =    31.94156 eV ==== 
 
    |psi|^2 = 0.000
==== e(  36) =    32.32473 eV ==== 
 
    |psi|^2 = 0.003

 k =   0.0625000000  0.0360843918  0.0000000000
==== e(   1) =   -21.77936 eV ==== 
     psi = 0.475*[#   1]+0.475*[#   5]+0.012*[#   3]+0.012*[#   7]+0.004*[#   4]
          +0.004*[#   8]
    |psi|^2 = 0.984
==== e(   2) =    -9.85753 eV ==== 
     psi = 0.474*[#   2]+0.474*[#   6]
    |psi|^2 = 0.949
==== e(   3) =    -5.78382 eV ==== 
     psi = 0.367*[#   3]+0.367*[#   7]+0.122*[#   4]+0.122*[#   8]+0.010*[#   1]
          +0.010*[#   5]
    |psi|^2 = 0.997
==== e(   4) =    -5.60556 eV ==== 
     psi = 0.374*[#   4]+0.374*[#   8]+0.125*[#   3]+0.125*[#   7]
    |psi|^2 = 0.997
==== e(   5) =     1.01727 eV ==== 
     psi = 0.004*[#   3]+0.004*[#   7]+0.002*[#   1]+0.002*[#   5]+0.001*[#   4]
          +0.001*[#   8]
    |psi|^2 = 0.015
==== e(   6) =     1.76161 eV ==== 
     psi = 0.009*[#   2]+0.009*[#   6]
    |psi|^2 = 0.018
==== e(   7) =     1.96426 eV ==== 
 
    |psi|^2 = 0.001
==== e(   8) =     2.92484 eV ==== 
     psi = 0.006*[#   2]+0.006*[#   6]
    |psi|^2 = 0.012
==== e(   9) =     3.39429 eV ==== 
 
    |psi|^2 = 0.002
==== e(  10) =     5.06672 eV ==== 
     psi = 0.005*[#   2]+0.005*[#   6]
    |psi|^2 = 0.009
==== e(  11) =     5.70475 eV ==== 
     psi = 0.006*[#   3]+0.006*[#   7]+0.002*[#   1]+0.002*[#   5]+0.002*[#   4]
          +0.002*[#   8]
    |psi|^2 = 0.020
==== e(  12) =     6.01849 eV ==== 
     psi = 0.331*[#   3]+0.331*[#   7]+0.110*[#   4]+0.110*[#   8]+0.018*[#   1]
          +0.018*[#   5]
    |psi|^2 = 0.918
==== e(  13) =     6.35948 eV ==== 
     psi = 0.356*[#   4]+0.356*[#   8]+0.119*[#   3]+0.119*[#   7]
    |psi|^2 = 0.948
==== e(  14) =     8.04089 eV ==== 
     psi = 0.003*[#   2]+0.003*[#   6]
    |psi|^2 = 0.005
==== e(  15) =     8.72950 eV ==== 
     psi = 0.495*[#   2]+0.495*[#   6]
    |psi|^2 = 0.991
==== e(  16) =     8.83441 eV ==== 
 
    |psi|^2 = 0.003
==== e(  17) =    10.28473 eV ==== 
     psi = 0.477*[#   1]+0.477*[#   5]+0.008*[#   3]+0.008*[#   7]+0.003*[#   4]
          +0.003*[#   8]
    |psi|^2 = 0.977
==== e(  18) =    11.77151 eV ==== 
     psi = 0.001*[#   2]+0.001*[#   6]
    |psi|^2 = 0.003
==== e(  19) =    12.78665 eV ==== 
 
    |psi|^2 = 0.001
==== e(  20) =    16.24836 eV ==== 
 
    |psi|^2 = 0.002
==== e(  21) =    17.53836 eV ==== 
 
    |psi|^2 = 0.001
==== e(  22) =    20.41312 eV ==== 
 
    |psi|^2 = 0.004
==== e(  23) =    21.33584 eV ==== 
 
    |psi|^2 = 0.001
==== e(  24) =    23.05978 eV ==== 
 
    |psi|^2 = 0.000
==== e(  25) =    24.82434 eV ==== 
     psi = 0.002*[#   2]+0.002*[#   6]
    |psi|^2 = 0.004
==== e(  26) =    25.01695 eV ==== 
 
    |psi|^2 = 0.000
==== e(  27) =    26.62499 eV ==== 
 
    |psi|^2 = 0.001
==== e(  28) =    28.91754 eV ==== 
 
    |psi|^2 = 0.001
==== e(  29) =    29.34260 eV ==== 
 
    |psi|^2 = 0.000
==== e(  30) =    29.60522 eV ==== 
     psi = 0.001*[#   1]+0.001*[#   5]
    |psi|^2 = 0.004
==== e(  31) =    30.26835 eV ==== 
 
    |psi|^2 = 0.000
==== e(  32) =    30.76317 eV ==== 
 
    |psi|^2 = 0.000
==== e(  33) =    30.81591 eV ==== 
 
    |psi|^2 = 0.000
==== e(  34) =    31.17943 eV ==== 
 
    |psi|^2 = 0.002
==== e(  35) =    31.92630 eV ==== 
     psi = 0.001*[#   1]+0.001*[#   5]
    |psi|^2 = 0.003
==== e(  36) =    31.95163 eV ==== 
 
    |psi|^2 = 0.000

 k =   0.0750000000  0.0433012702  0.0000000000
==== e(   1) =   -21.73885 eV ==== 
     psi = 0.469*[#   1]+0.469*[#   5]+0.017*[#   3]+0.017*[#   7]+0.006*[#   4]
          +0.006*[#   8]
    |psi|^2 = 0.984
==== e(   2) =    -9.80912 eV ==== 
     psi = 0.475*[#   2]+0.475*[#   6]
    |psi|^2 = 0.950
==== e(   3) =    -5.94166 eV ==== 
     psi = 0.364*[#   3]+0.364*[#   7]+0.121*[#   4]+0.121*[#   8]+0.014*[#   1]
          +0.014*[#   5]
    |psi|^2 = 0.997
==== e(   4) =    -5.68696 eV ==== 
     psi = 0.374*[#   4]+0.374*[#   8]+0.125*[#   3]+0.125*[#   7]
    |psi|^2 = 0.997
==== e(   5) =     1.07239 eV ==== 
     psi = 0.006*[#   3]+0.006*[#   7]+0.002*[#   4]+0.002*[#   8]+0.002*[#   1]
          +0.002*[#   5]
    |psi|^2 = 0.018
==== e(   6) =     1.81749 eV ==== 
     psi = 0.009*[#   2]+0.009*[#   6]
    |psi|^2 = 0.018
==== e(   7) =     2.02069 eV ==== 
 
    |psi|^2 = 0.002
==== e(   8) =     2.98071 eV ==== 
     psi = 0.006*[#   2]+0.006*[#   6]
    |psi|^2 = 0.012
==== e(   9) =     3.45013 eV ==== 
 
    |psi|^2 = 0.003
==== e(  10) =     5.12210 eV ==== 
     psi = 0.004*[#   2]+0.004*[#   6]
    |psi|^2 = 0.009
==== e(  11) =     5.75496 eV ==== 
     psi = 0.011*[#   3]+0.011*[#   7]+0.004*[#   1]+0.004*[#   4]+0.004*[#   5]
          +0.004*[#   8]
    |psi|^2 = 0.036
==== e(  12) =     6.03694 eV ==== 
     psi = 0.318*[#   3]+0.318*[#   7]+0.106*[#   4]+0.106*[#   8]+0.025*[#   1]
          +0.025*[#   5]
    |psi|^2 = 0.897
==== e(  13) =     6.52875 eV ==== 
     psi = 0.355*[#   4]+0.355*[#   8]+0.118*[#   3]+0.118*[#   7]
    |psi|^2 = 0.947
==== e(  14) =     8.09520 eV ==== 
     psi = 0.003*[#   2]+0.003*[#   6]
    |psi|^2 = 0.005
==== e(  15) =     8.59270 eV ==== 
     psi = 0.494*[#   2]+0.494*[#   6]
    |psi|^2 = 0.989
==== e(  16) =     8.89033 eV ==== 
     psi = 0.001*[#   3]+0.001*[#   7]
    |psi|^2 = 0.004
==== e(  17) =    10.36138 eV ==== 
     psi = 0.471*[#   1]+0.471*[#   5]+0.013*[#   3]+0.013*[#   7]+0.004*[#   4]
          +0.004*[#   8]
    |psi|^2 = 0.976
==== e(  18) =    11.82397 eV ==== 
     psi = 0.001*[#   2]+0.001*[#   6]
    |psi|^2 = 0.003
==== e(  19) =    12.84199 eV ==== 
 
    |psi|^2 = 0.001
==== e(  20) =    16.29551 eV ==== 
 
    |psi|^2 = 0.002
==== e(  21) =    17.59297 eV ==== 
 
    |psi|^2 = 0.001
==== e(  22) =    20.53627 eV ==== 
     psi = 0.001*[#   1]+0.001*[#   3]+0.001*[#   5]+0.001*[#   7]
    |psi|^2 = 0.005
==== e(  23) =    21.34945 eV ==== 
 
    |psi|^2 = 0.001
==== e(  24) =    23.11419 eV ==== 
 
    |psi|^2 = 0.000
==== e(  25) =    24.44163 eV ==== 
     psi = 0.002*[#   2]+0.002*[#   6]
    |psi|^2 = 0.004
==== e(  26) =    24.74845 eV ==== 
 
    |psi|^2 = 0.000
==== e(  27) =    26.68484 eV ==== 
 
    |psi|^2 = 0.002
==== e(  28) =    28.88966 eV ==== 
     psi = 0.001*[#   1]+0.001*[#   5]
    |psi|^2 = 0.004
==== e(  29) =    28.91246 eV ==== 
 
    |psi|^2 = 0.001
==== e(  30) =    29.39655 eV ==== 
 
    |psi|^2 = 0.000
==== e(  31) =    30.00143 eV ==== 
 
    |psi|^2 = 0.000
==== e(  32) =    30.07686 eV ==== 
 
    |psi|^2 = 0.000
==== e(  33) =    30.62123 eV ==== 
 
    |psi|^2 = 0.000
==== e(  34) =    30.83394 eV ==== 
 
    |psi|^2 = 0.002
==== e(  35) =    31.23625 eV ==== 
 
    |psi|^2 = 0.000
==== e(  36) =    31.31326 eV ==== 
 
    |psi|^2 = 0.002

 k =   0.0875000000  0.0505181486  0.0000000000
==== e(   1) =   -21.69099 eV ==== 
     psi = 0.461*[#   1]+0.461*[#   5]+0.023*[#   3]+0.023*[#   7]+0.008*[#   4]
          +0.008*[#   8]
    |psi|^2 = 0.984
==== e(   2) =    -9.75197 eV ==== 
     psi = 0.476*[#   2]+0.476*[#   6]
    |psi|^2 = 0.951
==== e(   3) =    -6.12331 eV ==== 
     psi = 0.360*[#   3]+0.360*[#   7]+0.120*[#   4]+0.120*[#   8]+0.018*[#   1]
          +0.018*[#   5]
    |psi|^2 = 0.997
==== e(   4) =    -5.77968 eV ==== 
     psi = 0.374*[#   4]+0.374*[#   8]+0.125*[#   3]+0.125*[#   7]
    |psi|^2 = 0.997
==== e(   5) =     1.13754 eV ==== 
     psi = 0.007*[#   3]+0.007*[#   7]+0.002*[#   4]+0.002*[#   8]+0.001*[#   1]
          +0.001*[#   5]
    |psi|^2 = 0.021
==== e(   6) =     1.88352 eV ==== 
     psi = 0.009*[#   2]+0.009*[#   6]
    |psi|^2 = 0.018
==== e(   7) =     2.08738 eV ==== 
 
    |psi|^2 = 0.002
==== e(   8) =     3.04672 eV ==== 
     psi = 0.006*[#   2]+0.006*[#   6]
    |psi|^2 = 0.012
==== e(   9) =     3.51612 eV ==== 
 
    |psi|^2 = 0.003
==== e(  10) =     5.18751 eV ==== 
     psi = 0.004*[#   2]+0.004*[#   6]
    |psi|^2 = 0.009
==== e(  11) =     5.81209 eV ==== 
     psi = 0.021*[#   3]+0.021*[#   7]+0.007*[#   4]+0.007*[#   8]+0.006*[#   1]
          +0.006*[#   5]
    |psi|^2 = 0.069
==== e(  12) =     6.05619 eV ==== 
     psi = 0.298*[#   3]+0.298*[#   7]+0.099*[#   4]+0.099*[#   8]+0.032*[#   1]
          +0.032*[#   5]
    |psi|^2 = 0.858
==== e(  13) =     6.72508 eV ==== 
     psi = 0.355*[#   4]+0.355*[#   8]+0.118*[#   3]+0.118*[#   7]
    |psi|^2 = 0.946
==== e(  14) =     8.15908 eV ==== 
     psi = 0.003*[#   2]+0.003*[#   6]
    |psi|^2 = 0.007
==== e(  15) =     8.43390 eV ==== 
     psi = 0.493*[#   2]+0.493*[#   6]
    |psi|^2 = 0.985
==== e(  16) =     8.95631 eV ==== 
     psi = 0.001*[#   3]+0.001*[#   7]
    |psi|^2 = 0.004
==== e(  17) =    10.45376 eV ==== 
     psi = 0.464*[#   1]+0.464*[#   5]+0.018*[#   3]+0.018*[#   7]+0.006*[#   4]
          +0.006*[#   8]
    |psi|^2 = 0.974
==== e(  18) =    11.88583 eV ==== 
     psi = 0.001*[#   2]+0.001*[#   6]
    |psi|^2 = 0.003
==== e(  19) =    12.90732 eV ==== 
 
    |psi|^2 = 0.002
==== e(  20) =    16.35061 eV ==== 
 
    |psi|^2 = 0.002
==== e(  21) =    17.65733 eV ==== 
 
    |psi|^2 = 0.001
==== e(  22) =    20.67633 eV ==== 
     psi = 0.002*[#   3]+0.002*[#   7]+0.001*[#   1]+0.001*[#   5]
    |psi|^2 = 0.007
==== e(  23) =    21.35494 eV ==== 
 
    |psi|^2 = 0.001
==== e(  24) =    23.17875 eV ==== 
 
    |psi|^2 = 0.000
==== e(  25) =    24.05490 eV ==== 
     psi = 0.003*[#   2]+0.003*[#   6]
    |psi|^2 = 0.005
==== e(  26) =    24.47151 eV ==== 
 
    |psi|^2 = 0.000
==== e(  27) =    26.75737 eV ==== 
     psi = 0.001*[#   2]+0.001*[#   6]
    |psi|^2 = 0.003
==== e(  28) =    28.18392 eV ==== 
     psi = 0.001*[#   1]+0.001*[#   5]
    |psi|^2 = 0.004
==== e(  29) =    28.90239 eV ==== 
 
    |psi|^2 = 0.001
==== e(  30) =    29.24950 eV ==== 
 
    |psi|^2 = 0.000
==== e(  31) =    29.36803 eV ==== 
 
    |psi|^2 = 0.000
==== e(  32) =    29.45835 eV ==== 
 
    |psi|^2 = 0.000
==== e(  33) =    30.49726 eV ==== 
 
    |psi|^2 = 0.003
==== e(  34) =    30.52282 eV ==== 
 
    |psi|^2 = 0.000
==== e(  35) =    30.59766 eV ==== 
 
    |psi|^2 = 0.002
==== e(  36) =    30.97972 eV ==== 
 
    |psi|^2 = 0.000

 k =   0.1000000000  0.0577350269  0.0000000000
==== e(   1) =   -21.63581 eV ==== 
     psi = 0.453*[#   1]+0.453*[#   5]+0.029*[#   3]+0.029*[#   7]+0.010*[#   4]
          +0.010*[#   8]
    |psi|^2 = 0.983
==== e(   2) =    -9.68612 eV ==== 
     psi = 0.476*[#   2]+0.476*[#   6]
    |psi|^2 = 0.953
==== e(   3) =    -6.32677 eV ==== 
     psi = 0.356*[#   3]+0.356*[#   7]+0.119*[#   4]+0.119*[#   8]+0.023*[#   1]
          +0.023*[#   5]
    |psi|^2 = 0.997
==== e(   4) =    -5.88232 eV ==== 
     psi = 0.374*[#   4]+0.374*[#   8]+0.125*[#   3]+0.125*[#   7]
    |psi|^2 = 0.997
==== e(   5) =     1.21272 eV ==== 
     psi = 0.008*[#   3]+0.008*[#   7]+0.003*[#   4]+0.003*[#   8]
    |psi|^2 = 0.024
==== e(   6) =     1.95969 eV ==== 
     psi = 0.009*[#   2]+0.009*[#   6]
    |psi|^2 = 0.017
==== e(   7) =     2.16433 eV ==== 
 
    |psi|^2 = 0.002
==== e(   8) =     3.12287 eV ==== 
     psi = 0.006*[#   2]+0.006*[#   6]
    |psi|^2 = 0.011
==== e(   9) =     3.59227 eV ==== 
 
    |psi|^2 = 0.003
==== e(  10) =     5.26295 eV ==== 
     psi = 0.004*[#   2]+0.004*[#   6]
    |psi|^2 = 0.008
==== e(  11) =     5.87267 eV ==== 
     psi = 0.044*[#   3]+0.044*[#   7]+0.015*[#   4]+0.015*[#   8]+0.013*[#   1]
          +0.013*[#   5]
    |psi|^2 = 0.143
==== e(  12) =     6.07822 eV ==== 
     psi = 0.264*[#   3]+0.264*[#   7]+0.088*[#   4]+0.088*[#   8]+0.037*[#   1]
          +0.037*[#   5]
    |psi|^2 = 0.779
==== e(  13) =     6.94690 eV ==== 
     psi = 0.354*[#   4]+0.354*[#   8]+0.118*[#   3]+0.118*[#   7]
    |psi|^2 = 0.945
==== e(  14) =     8.22438 eV ==== 
     psi = 0.121*[#   2]+0.121*[#   6]
    |psi|^2 = 0.241
==== e(  15) =     8.26237 eV ==== 
     psi = 0.374*[#   2]+0.374*[#   6]
    |psi|^2 = 0.748
==== e(  16) =     9.03230 eV ==== 
     psi = 0.002*[#   3]+0.002*[#   7]
    |psi|^2 = 0.005
==== e(  17) =    10.56214 eV ==== 
     psi = 0.455*[#   1]+0.455*[#   5]+0.023*[#   3]+0.023*[#   7]+0.008*[#   4]
          +0.008*[#   8]
    |psi|^2 = 0.972
==== e(  18) =    11.95705 eV ==== 
     psi = 0.001*[#   2]+0.001*[#   6]
    |psi|^2 = 0.003
==== e(  19) =    12.98261 eV ==== 
 
    |psi|^2 = 0.002
==== e(  20) =    16.41327 eV ==== 
 
    |psi|^2 = 0.002
==== e(  21) =    17.73138 eV ==== 
 
    |psi|^2 = 0.001
==== e(  22) =    20.83028 eV ==== 
     psi = 0.002*[#   3]+0.002*[#   7]+0.002*[#   1]+0.002*[#   5]
    |psi|^2 = 0.009
==== e(  23) =    21.34346 eV ==== 
 
    |psi|^2 = 0.001
==== e(  24) =    23.25359 eV ==== 
 
    |psi|^2 = 0.000
==== e(  25) =    23.68475 eV ==== 
     psi = 0.003*[#   2]+0.003*[#   6]
    |psi|^2 = 0.006
==== e(  26) =    24.19131 eV ==== 
 
    |psi|^2 = 0.000
==== e(  27) =    26.83187 eV ==== 
     psi = 0.002*[#   2]+0.002*[#   6]
    |psi|^2 = 0.003
==== e(  28) =    27.48808 eV ==== 
     psi = 0.002*[#   1]+0.002*[#   5]
    |psi|^2 = 0.004
==== e(  29) =    28.50815 eV ==== 
 
    |psi|^2 = 0.000
==== e(  30) =    28.56372 eV ==== 
 
    |psi|^2 = 0.000
==== e(  31) =    29.00779 eV ==== 
 
    |psi|^2 = 0.002
==== e(  32) =    29.52955 eV ==== 
 
    |psi|^2 = 0.000
==== e(  33) =    29.82280 eV ==== 
 
    |psi|^2 = 0.000
==== e(  34) =    29.87641 eV ==== 
 
    |psi|^2 = 0.002
==== e(  35) =    30.16974 eV ==== 
 
    |psi|^2 = 0.003
==== e(  36) =    31.05261 eV ==== 
     psi = 0.001*[#   1]+0.001*[#   5]
    |psi|^2 = 0.003

 k =   0.1125000000  0.0649519053  0.0000000000
==== e(   1) =   -21.57330 eV ==== 
     psi = 0.444*[#   1]+0.444*[#   5]+0.035*[#   3]+0.035*[#   7]+0.012*[#   4]
          +0.012*[#   8]
    |psi|^2 = 0.983
==== e(   2) =    -9.61161 eV ==== 
     psi = 0.477*[#   2]+0.477*[#   6]
    |psi|^2 = 0.954
==== e(   3) =    -6.55000 eV ==== 
     psi = 0.352*[#   3]+0.352*[#   7]+0.117*[#   4]+0.117*[#   8]+0.029*[#   1]
          +0.029*[#   5]
    |psi|^2 = 0.996
==== e(   4) =    -5.99343 eV ==== 
     psi = 0.374*[#   4]+0.374*[#   8]+0.125*[#   3]+0.125*[#   7]
    |psi|^2 = 0.997
==== e(   5) =     1.29792 eV ==== 
     psi = 0.010*[#   3]+0.010*[#   7]+0.003*[#   4]+0.003*[#   8]
    |psi|^2 = 0.028
==== e(   6) =     2.04599 eV ==== 
     psi = 0.008*[#   2]+0.008*[#   6]
    |psi|^2 = 0.016
==== e(   7) =     2.25154 eV ==== 
 
    |psi|^2 = 0.002
==== e(   8) =     3.20915 eV ==== 
     psi = 0.005*[#   2]+0.005*[#   6]
    |psi|^2 = 0.011
==== e(   9) =     3.67856 eV ==== 
 
    |psi|^2 = 0.003
==== e(  10) =     5.34839 eV ==== 
     psi = 0.004*[#   2]+0.004*[#   6]
    |psi|^2 = 0.008
==== e(  11) =     5.92836 eV ==== 
     psi = 0.094*[#   3]+0.094*[#   7]+0.031*[#   4]+0.031*[#   8]+0.028*[#   1]
          +0.028*[#   5]
    |psi|^2 = 0.305
==== e(  12) =     6.11019 eV ==== 
     psi = 0.203*[#   3]+0.203*[#   7]+0.068*[#   4]+0.068*[#   8]+0.035*[#   1]
          +0.035*[#   5]
    |psi|^2 = 0.612
==== e(  13) =     7.19262 eV ==== 
     psi = 0.354*[#   4]+0.354*[#   8]+0.118*[#   3]+0.118*[#   7]
    |psi|^2 = 0.944
==== e(  14) =     8.05110 eV ==== 
     psi = 0.488*[#   2]+0.488*[#   6]
    |psi|^2 = 0.975
==== e(  15) =     8.31934 eV ==== 
     psi = 0.006*[#   2]+0.006*[#   6]
    |psi|^2 = 0.012
==== e(  16) =     9.11825 eV ==== 
     psi = 0.002*[#   3]+0.002*[#   7]
    |psi|^2 = 0.005
==== e(  17) =    10.68648 eV ==== 
     psi = 0.444*[#   1]+0.444*[#   5]+0.030*[#   3]+0.030*[#   7]+0.010*[#   4]
          +0.010*[#   8]
    |psi|^2 = 0.969
==== e(  18) =    12.03754 eV ==== 
     psi = 0.001*[#   2]+0.001*[#   6]
    |psi|^2 = 0.003
==== e(  19) =    13.06784 eV ==== 
 
    |psi|^2 = 0.002
==== e(  20) =    16.48301 eV ==== 
 
    |psi|^2 = 0.002
==== e(  21) =    17.81503 eV ==== 
 
    |psi|^2 = 0.001
==== e(  22) =    20.99419 eV ==== 
     psi = 0.003*[#   3]+0.003*[#   7]+0.002*[#   1]+0.002*[#   5]
    |psi|^2 = 0.011
==== e(  23) =    21.30150 eV ==== 
 
    |psi|^2 = 0.002
==== e(  24) =    23.33887 eV ==== 
 
    |psi|^2 = 0.000
==== e(  25) =    23.35213 eV ==== 
     psi = 0.004*[#   2]+0.004*[#   6]
    |psi|^2 = 0.007
==== e(  26) =    23.91136 eV ==== 
 
    |psi|^2 = 0.000
==== e(  27) =    26.80445 eV ==== 
     psi = 0.002*[#   1]+0.002*[#   5]
    |psi|^2 = 0.005
==== e(  28) =    26.88718 eV ==== 
     psi = 0.002*[#   2]+0.002*[#   6]
    |psi|^2 = 0.003
==== e(  29) =    27.77739 eV ==== 
 
    |psi|^2 = 0.001
==== e(  30) =    27.89640 eV ==== 
 
    |psi|^2 = 0.001
==== e(  31) =    28.96529 eV ==== 
     psi = 0.001*[#   2]+0.001*[#   6]
    |psi|^2 = 0.002
==== e(  32) =    29.16129 eV ==== 
 
    |psi|^2 = 0.002
==== e(  33) =    29.17918 eV ==== 
 
    |psi|^2 = 0.000
==== e(  34) =    29.61027 eV ==== 
 
    |psi|^2 = 0.000
==== e(  35) =    29.85157 eV ==== 
     psi = 0.001*[#   4]+0.001*[#   8]
    |psi|^2 = 0.003
==== e(  36) =    30.72898 eV ==== 
     psi = 0.001*[#   1]+0.001*[#   5]
    |psi|^2 = 0.003

 k =   0.1250000000  0.0721687836  0.0000000000
==== e(   1) =   -21.50349 eV ==== 
     psi = 0.435*[#   1]+0.435*[#   5]+0.042*[#   3]+0.042*[#   7]+0.014*[#   4]
          +0.014*[#   8]
    |psi|^2 = 0.983
==== e(   2) =    -9.52849 eV ==== 
     psi = 0.478*[#   2]+0.478*[#   6]
    |psi|^2 = 0.956
==== e(   3) =    -6.79097 eV ==== 
     psi = 0.348*[#   3]+0.348*[#   7]+0.116*[#   4]+0.116*[#   8]+0.034*[#   1]
          +0.034*[#   5]
    |psi|^2 = 0.996
==== e(   4) =    -6.11160 eV ==== 
     psi = 0.374*[#   4]+0.374*[#   8]+0.125*[#   3]+0.125*[#   7]
    |psi|^2 = 0.997
==== e(   5) =     1.39313 eV ==== 
     psi = 0.011*[#   3]+0.011*[#   7]+0.004*[#   4]+0.004*[#   8]
    |psi|^2 = 0.030
==== e(   6) =     2.14241 eV ==== 
     psi = 0.008*[#   2]+0.008*[#   6]
    |psi|^2 = 0.016
==== e(   7) =     2.34901 eV ==== 
 
    |psi|^2 = 0.002
==== e(   8) =     3.30554 eV ==== 
     psi = 0.005*[#   2]+0.005*[#   6]
    |psi|^2 = 0.010
==== e(   9) =     3.77500 eV ==== 
     psi = 0.001*[#   3]+0.001*[#   7]
    |psi|^2 = 0.003
==== e(  10) =     5.44378 eV ==== 
     psi = 0.004*[#   2]+0.004*[#   6]
    |psi|^2 = 0.008
==== e(  11) =     5.96569 eV ==== 
     psi = 0.163*[#   3]+0.163*[#   7]+0.054*[#   4]+0.054*[#   8]+0.052*[#   1]
          +0.052*[#   5]
    |psi|^2 = 0.539
==== e(  12) =     6.16476 eV ==== 
     psi = 0.122*[#   3]+0.122*[#   7]+0.041*[#   4]+0.041*[#   8]+0.024*[#   1]
          +0.024*[#   5]
    |psi|^2 = 0.374
==== e(  13) =     7.46063 eV ==== 
     psi = 0.353*[#   4]+0.353*[#   8]+0.118*[#   3]+0.118*[#   7]
    |psi|^2 = 0.942
==== e(  14) =     7.83272 eV ==== 
     psi = 0.489*[#   2]+0.489*[#   6]
    |psi|^2 = 0.977
==== e(  15) =     8.41260 eV ==== 
     psi = 0.004*[#   2]+0.004*[#   6]
    |psi|^2 = 0.007
==== e(  16) =     9.21413 eV ==== 
     psi = 0.002*[#   3]+0.002*[#   7]
    |psi|^2 = 0.006
==== e(  17) =    10.82638 eV ==== 
     psi = 0.433*[#   1]+0.433*[#   5]+0.038*[#   3]+0.038*[#   7]+0.013*[#   4]
          +0.013*[#   8]
    |psi|^2 = 0.966
==== e(  18) =    12.12721 eV ==== 
     psi = 0.001*[#   2]+0.001*[#   6]
    |psi|^2 = 0.003
==== e(  19) =    13.16296 eV ==== 
 
    |psi|^2 = 0.002
==== e(  20) =    16.55919 eV ==== 
 
    |psi|^2 = 0.001
==== e(  21) =    17.90823 eV ==== 
 
    |psi|^2 = 0.001
==== e(  22) =    21.16293 eV ==== 
     psi = 0.003*[#   3]+0.003*[#   7]+0.003*[#   1]+0.003*[#   5]+0.001*[#   4]
          +0.001*[#   8]
    |psi|^2 = 0.014
==== e(  23) =    21.21155 eV ==== 
     psi = 0.001*[#   2]+0.001*[#   6]
    |psi|^2 = 0.003
==== e(  24) =    23.07917 eV ==== 
     psi = 0.004*[#   2]+0.004*[#   6]
    |psi|^2 = 0.007
==== e(  25) =    23.43467 eV ==== 
 
    |psi|^2 = 0.000
==== e(  26) =    23.63412 eV ==== 
 
    |psi|^2 = 0.000
==== e(  27) =    26.13571 eV ==== 
     psi = 0.002*[#   1]+0.002*[#   5]
    |psi|^2 = 0.005
==== e(  28) =    26.82773 eV ==== 
 
    |psi|^2 = 0.002
==== e(  29) =    27.05764 eV ==== 
 
    |psi|^2 = 0.001
==== e(  30) =    27.30841 eV ==== 
     psi = 0.001*[#   2]+0.001*[#   6]
    |psi|^2 = 0.002
==== e(  31) =    28.45566 eV ==== 
 
    |psi|^2 = 0.002
==== e(  32) =    28.45713 eV ==== 
 
    |psi|^2 = 0.001
==== e(  33) =    29.05134 eV ==== 
     psi = 0.001*[#   2]+0.001*[#   6]
    |psi|^2 = 0.002
==== e(  34) =    29.54289 eV ==== 
     psi = 0.001*[#   4]+0.001*[#   8]
    |psi|^2 = 0.003
==== e(  35) =    29.69934 eV ==== 
 
    |psi|^2 = 0.000
==== e(  36) =    30.38597 eV ==== 
     psi = 0.002*[#   1]+0.002*[#   5]
    |psi|^2 = 0.004

 k =   0.1375000000  0.0793856620  0.0000000000
==== e(   1) =   -21.42639 eV ==== 
     psi = 0.426*[#   1]+0.426*[#   5]+0.049*[#   3]+0.049*[#   7]+0.016*[#   4]
          +0.016*[#   8]
    |psi|^2 = 0.983
==== e(   2) =    -9.43681 eV ==== 
     psi = 0.479*[#   2]+0.479*[#   6]
    |psi|^2 = 0.958
==== e(   3) =    -7.04771 eV ==== 
     psi = 0.343*[#   3]+0.343*[#   7]+0.114*[#   4]+0.114*[#   8]+0.040*[#   1]
          +0.040*[#   5]
    |psi|^2 = 0.996
==== e(   4) =    -6.23544 eV ==== 
     psi = 0.374*[#   4]+0.374*[#   8]+0.125*[#   3]+0.125*[#   7]
    |psi|^2 = 0.997
==== e(   5) =     1.49836 eV ==== 
     psi = 0.012*[#   3]+0.012*[#   7]+0.004*[#   4]+0.004*[#   8]
    |psi|^2 = 0.033
==== e(   6) =     2.24893 eV ==== 
     psi = 0.008*[#   2]+0.008*[#   6]
    |psi|^2 = 0.015
==== e(   7) =     2.45674 eV ==== 
 
    |psi|^2 = 0.003
==== e(   8) =     3.41203 eV ==== 
     psi = 0.005*[#   2]+0.005*[#   6]
    |psi|^2 = 0.010
==== e(   9) =     3.88157 eV ==== 
     psi = 0.001*[#   3]+0.001*[#   7]
    |psi|^2 = 0.004
==== e(  10) =     5.54906 eV ==== 
     psi = 0.004*[#   2]+0.004*[#   6]
    |psi|^2 = 0.007
==== e(  11) =     5.97929 eV ==== 
     psi = 0.208*[#   3]+0.208*[#   7]+0.077*[#   1]+0.077*[#   5]+0.069*[#   4]
          +0.069*[#   8]
    |psi|^2 = 0.708
==== e(  12) =     6.24683 eV ==== 
     psi = 0.065*[#   3]+0.065*[#   7]+0.022*[#   4]+0.022*[#   8]+0.014*[#   1]
          +0.014*[#   5]
    |psi|^2 = 0.201
==== e(  13) =     7.59671 eV ==== 
     psi = 0.488*[#   2]+0.488*[#   6]
    |psi|^2 = 0.975
==== e(  14) =     7.74931 eV ==== 
     psi = 0.353*[#   4]+0.353*[#   8]+0.118*[#   3]+0.118*[#   7]
    |psi|^2 = 0.941
==== e(  15) =     8.51602 eV ==== 
     psi = 0.003*[#   2]+0.003*[#   6]
    |psi|^2 = 0.006
==== e(  16) =     9.31991 eV ==== 
     psi = 0.002*[#   3]+0.002*[#   7]
    |psi|^2 = 0.006
==== e(  17) =    10.98106 eV ==== 
     psi = 0.420*[#   1]+0.420*[#   5]+0.045*[#   3]+0.045*[#   7]+0.015*[#   4]
          +0.015*[#   8]
    |psi|^2 = 0.962
==== e(  18) =    12.22595 eV ==== 
     psi = 0.001*[#   2]+0.001*[#   6]
    |psi|^2 = 0.003
==== e(  19) =    13.26796 eV ==== 
 
    |psi|^2 = 0.002
==== e(  20) =    16.64093 eV ==== 
 
    |psi|^2 = 0.002
==== e(  21) =    18.01088 eV ==== 
 
    |psi|^2 = 0.001
==== e(  22) =    21.05864 eV ==== 
     psi = 0.002*[#   2]+0.002*[#   6]
    |psi|^2 = 0.005
==== e(  23) =    21.32931 eV ==== 
     psi = 0.004*[#   3]+0.004*[#   7]+0.003*[#   1]+0.003*[#   5]+0.001*[#   4]
          +0.001*[#   8]
    |psi|^2 = 0.018
==== e(  24) =    22.88349 eV ==== 
     psi = 0.003*[#   2]+0.003*[#   6]
    |psi|^2 = 0.007
==== e(  25) =    23.36131 eV ==== 
 
    |psi|^2 = 0.000
==== e(  26) =    23.54082 eV ==== 
 
    |psi|^2 = 0.000
==== e(  27) =    25.48587 eV ==== 
     psi = 0.002*[#   1]+0.002*[#   5]
    |psi|^2 = 0.005
==== e(  28) =    26.34950 eV ==== 
 
    |psi|^2 = 0.001
==== e(  29) =    26.36135 eV ==== 
 
    |psi|^2 = 0.000
==== e(  30) =    27.04697 eV ==== 
     psi = 0.001*[#   2]+0.001*[#   6]
    |psi|^2 = 0.003
==== e(  31) =    27.76093 eV ==== 
 
    |psi|^2 = 0.002
==== e(  32) =    27.89913 eV ==== 
     psi = 0.001*[#   2]+0.001*[#   6]
    |psi|^2 = 0.002
==== e(  33) =    29.05316 eV ==== 
     psi = 0.001*[#   2]+0.001*[#   6]
    |psi|^2 = 0.002
==== e(  34) =    29.24378 eV ==== 
     psi = 0.001*[#   4]+0.001*[#   8]
    |psi|^2 = 0.003
==== e(  35) =    29.79140 eV ==== 
 
    |psi|^2 = 0.001
==== e(  36) =    29.92217 eV ==== 
     psi = 0.002*[#   1]+0.002*[#   5]
    |psi|^2 = 0.004

 k =   0.1500000000  0.0866025404  0.0000000000
==== e(   1) =   -21.34204 eV ==== 
     psi = 0.417*[#   1]+0.417*[#   5]+0.056*[#   3]+0.056*[#   7]+0.019*[#   4]
          +0.019*[#   8]
    |psi|^2 = 0.983
==== e(   2) =    -9.33664 eV ==== 
     psi = 0.480*[#   2]+0.480*[#   6]
    |psi|^2 = 0.960
==== e(   3) =    -7.31834 eV ==== 
     psi = 0.338*[#   3]+0.338*[#   7]+0.113*[#   4]+0.113*[#   8]+0.046*[#   1]
          +0.046*[#   5]
    |psi|^2 = 0.995
==== e(   4) =    -6.36365 eV ==== 
     psi = 0.374*[#   4]+0.374*[#   8]+0.125*[#   3]+0.125*[#   7]
    |psi|^2 = 0.997
==== e(   5) =     1.61359 eV ==== 
     psi = 0.013*[#   3]+0.013*[#   7]+0.004*[#   4]+0.004*[#   8]
    |psi|^2 = 0.035
==== e(   6) =     2.36554 eV ==== 
     psi = 0.007*[#   2]+0.007*[#   6]
    |psi|^2 = 0.015
==== e(   7) =     2.57473 eV ==== 
 
    |psi|^2 = 0.003
==== e(   8) =     3.52859 eV ==== 
     psi = 0.005*[#   2]+0.005*[#   6]
    |psi|^2 = 0.009
==== e(   9) =     3.99826 eV ==== 
     psi = 0.001*[#   3]+0.001*[#   7]
    |psi|^2 = 0.003
==== e(  10) =     5.66411 eV ==== 
     psi = 0.004*[#   2]+0.004*[#   6]
    |psi|^2 = 0.007
==== e(  11) =     5.97542 eV ==== 
     psi = 0.223*[#   3]+0.223*[#   7]+0.098*[#   1]+0.098*[#   5]+0.074*[#   4]
          +0.074*[#   8]
    |psi|^2 = 0.790
==== e(  12) =     6.35004 eV ==== 
     psi = 0.037*[#   3]+0.037*[#   7]+0.012*[#   4]+0.012*[#   8]+0.008*[#   1]
          +0.008*[#   5]
    |psi|^2 = 0.116
==== e(  13) =     7.34482 eV ==== 
     psi = 0.486*[#   2]+0.486*[#   6]
    |psi|^2 = 0.973
==== e(  14) =     8.05713 eV ==== 
     psi = 0.352*[#   4]+0.352*[#   8]+0.117*[#   3]+0.117*[#   7]
    |psi|^2 = 0.939
==== e(  15) =     8.62927 eV ==== 
     psi = 0.003*[#   2]+0.003*[#   6]
    |psi|^2 = 0.006
==== e(  16) =     9.43555 eV ==== 
     psi = 0.002*[#   3]+0.002*[#   7]
    |psi|^2 = 0.006
==== e(  17) =    11.14939 eV ==== 
     psi = 0.407*[#   1]+0.407*[#   5]+0.053*[#   3]+0.053*[#   7]+0.018*[#   4]
          +0.018*[#   8]
    |psi|^2 = 0.956
==== e(  18) =    12.33362 eV ==== 
     psi = 0.001*[#   2]+0.001*[#   6]
    |psi|^2 = 0.003
==== e(  19) =    13.38280 eV ==== 
 
    |psi|^2 = 0.002
==== e(  20) =    16.72703 eV ==== 
 
    |psi|^2 = 0.002
==== e(  21) =    18.12292 eV ==== 
 
    |psi|^2 = 0.001
==== e(  22) =    20.84172 eV ==== 
     psi = 0.003*[#   2]+0.003*[#   6]
    |psi|^2 = 0.007
==== e(  23) =    21.48255 eV ==== 
     psi = 0.006*[#   3]+0.006*[#   7]+0.004*[#   1]+0.004*[#   5]+0.002*[#   4]
          +0.002*[#   8]
    |psi|^2 = 0.023
==== e(  24) =    22.76701 eV ==== 
     psi = 0.003*[#   2]+0.003*[#   6]
    |psi|^2 = 0.006
==== e(  25) =    23.09418 eV ==== 
 
    |psi|^2 = 0.000
==== e(  26) =    23.65606 eV ==== 
 
    |psi|^2 = 0.001
==== e(  27) =    24.86228 eV ==== 
     psi = 0.002*[#   1]+0.002*[#   5]
    |psi|^2 = 0.005
==== e(  28) =    25.65418 eV ==== 
 
    |psi|^2 = 0.001
==== e(  29) =    25.71881 eV ==== 
 
    |psi|^2 = 0.000
==== e(  30) =    26.72532 eV ==== 
 
    |psi|^2 = 0.001
==== e(  31) =    27.07857 eV ==== 
 
    |psi|^2 = 0.002
==== e(  32) =    27.56504 eV ==== 
     psi = 0.002*[#   2]+0.002*[#   6]
    |psi|^2 = 0.004
==== e(  33) =    28.95431 eV ==== 
     psi = 0.001*[#   4]+0.001*[#   8]
    |psi|^2 = 0.003
==== e(  34) =    29.04457 eV ==== 
     psi = 0.001*[#   2]+0.001*[#   6]
    |psi|^2 = 0.002
==== e(  35) =    29.30164 eV ==== 
     psi = 0.002*[#   1]+0.002*[#   5]
    |psi|^2 = 0.004
==== e(  36) =    29.35970 eV ==== 
 
    |psi|^2 = 0.001

 k =   0.1625000000  0.0938194187  0.0000000000
==== e(   1) =   -21.25043 eV ==== 
     psi = 0.408*[#   1]+0.408*[#   5]+0.063*[#   3]+0.063*[#   7]+0.021*[#   4]
          +0.021*[#   8]
    |psi|^2 = 0.982
==== e(   2) =    -9.22805 eV ==== 
     psi = 0.481*[#   2]+0.481*[#   6]
    |psi|^2 = 0.962
==== e(   3) =    -7.60108 eV ==== 
     psi = 0.334*[#   3]+0.334*[#   7]+0.111*[#   4]+0.111*[#   8]+0.052*[#   1]
          +0.052*[#   5]
    |psi|^2 = 0.995
==== e(   4) =    -6.49499 eV ==== 
     psi = 0.374*[#   4]+0.374*[#   8]+0.125*[#   3]+0.125*[#   7]
    |psi|^2 = 0.997
==== e(   5) =     1.73881 eV ==== 
     psi = 0.014*[#   3]+0.014*[#   7]+0.005*[#   4]+0.005*[#   8]
    |psi|^2 = 0.037
==== e(   6) =     2.49220 eV ==== 
     psi = 0.007*[#   2]+0.007*[#   6]
    |psi|^2 = 0.014
==== e(   7) =     2.70298 eV ==== 
 
    |psi|^2 = 0.003
==== e(   8) =     3.65520 eV ==== 
     psi = 0.004*[#   2]+0.004*[#   6]
    |psi|^2 = 0.009
==== e(   9) =     4.12505 eV ==== 
     psi = 0.001*[#   3]+0.001*[#   7]
    |psi|^2 = 0.003
==== e(  10) =     5.78865 eV ==== 
     psi = 0.004*[#   2]+0.004*[#   6]
    |psi|^2 = 0.008
==== e(  11) =     5.95998 eV ==== 
     psi = 0.224*[#   3]+0.224*[#   7]+0.116*[#   1]+0.116*[#   5]+0.075*[#   4]
          +0.075*[#   8]
    |psi|^2 = 0.829
==== e(  12) =     6.46869 eV ==== 
     psi = 0.024*[#   3]+0.024*[#   7]+0.008*[#   4]+0.008*[#   8]+0.005*[#   1]
          +0.005*[#   5]
    |psi|^2 = 0.074
==== e(  13) =     7.07871 eV ==== 
     psi = 0.485*[#   2]+0.485*[#   6]
    |psi|^2 = 0.970
==== e(  14) =     8.38255 eV ==== 
     psi = 0.351*[#   4]+0.351*[#   8]+0.117*[#   3]+0.117*[#   7]
    |psi|^2 = 0.937
==== e(  15) =     8.75225 eV ==== 
     psi = 0.003*[#   2]+0.003*[#   6]
    |psi|^2 = 0.005
==== e(  16) =     9.56105 eV ==== 
     psi = 0.002*[#   3]+0.002*[#   7]
    |psi|^2 = 0.006
==== e(  17) =    11.32995 eV ==== 
     psi = 0.393*[#   1]+0.393*[#   5]+0.062*[#   3]+0.062*[#   7]+0.021*[#   4]
          +0.021*[#   8]
    |psi|^2 = 0.950
==== e(  18) =    12.45005 eV ==== 
     psi = 0.001*[#   2]+0.001*[#   6]
    |psi|^2 = 0.002
==== e(  19) =    13.50744 eV ==== 
 
    |psi|^2 = 0.002
==== e(  20) =    16.81579 eV ==== 
 
    |psi|^2 = 0.002
==== e(  21) =    18.24423 eV ==== 
 
    |psi|^2 = 0.001
==== e(  22) =    20.57621 eV ==== 
     psi = 0.005*[#   2]+0.005*[#   6]
    |psi|^2 = 0.009
==== e(  23) =    21.60468 eV ==== 
     psi = 0.007*[#   3]+0.007*[#   7]+0.005*[#   1]+0.005*[#   5]+0.002*[#   4]
          +0.002*[#   8]
    |psi|^2 = 0.029
==== e(  24) =    22.71297 eV ==== 
     psi = 0.002*[#   2]+0.002*[#   6]
    |psi|^2 = 0.005
==== e(  25) =    22.83366 eV ==== 
 
    |psi|^2 = 0.000
==== e(  26) =    23.77118 eV ==== 
 
    |psi|^2 = 0.001
==== e(  27) =    24.28424 eV ==== 
     psi = 0.002*[#   1]+0.002*[#   5]
    |psi|^2 = 0.005
==== e(  28) =    24.97468 eV ==== 
 
    |psi|^2 = 0.001
==== e(  29) =    25.06459 eV ==== 
 
    |psi|^2 = 0.000
==== e(  30) =    26.19326 eV ==== 
 
    |psi|^2 = 0.000
==== e(  31) =    26.41065 eV ==== 
     psi = 0.001*[#   1]+0.001*[#   5]
    |psi|^2 = 0.003
==== e(  32) =    27.40975 eV ==== 
     psi = 0.002*[#   2]+0.002*[#   6]
    |psi|^2 = 0.005
==== e(  33) =    28.65561 eV ==== 
     psi = 0.001*[#   1]+0.001*[#   5]
    |psi|^2 = 0.004
==== e(  34) =    28.67451 eV ==== 
     psi = 0.001*[#   4]+0.001*[#   8]
    |psi|^2 = 0.003
==== e(  35) =    28.81565 eV ==== 
 
    |psi|^2 = 0.002
==== e(  36) =    29.02430 eV ==== 
     psi = 0.001*[#   2]+0.001*[#   6]
    |psi|^2 = 0.002

 k =   0.1750000000  0.1010362971  0.0000000000
==== e(   1) =   -21.15161 eV ==== 
     psi = 0.398*[#   1]+0.398*[#   5]+0.070*[#   3]+0.070*[#   7]+0.023*[#   4]
          +0.023*[#   8]
    |psi|^2 = 0.982
==== e(   2) =    -9.11112 eV ==== 
     psi = 0.482*[#   2]+0.482*[#   6]
    |psi|^2 = 0.965
==== e(   3) =    -7.89428 eV ==== 
     psi = 0.329*[#   3]+0.329*[#   7]+0.110*[#   4]+0.110*[#   8]+0.059*[#   1]
          +0.059*[#   5]
    |psi|^2 = 0.994
==== e(   4) =    -6.62834 eV ==== 
     psi = 0.374*[#   4]+0.374*[#   8]+0.125*[#   3]+0.125*[#   7]
    |psi|^2 = 0.997
==== e(   5) =     1.87403 eV ==== 
     psi = 0.014*[#   3]+0.014*[#   7]+0.005*[#   4]+0.005*[#   8]
    |psi|^2 = 0.038
==== e(   6) =     2.62888 eV ==== 
     psi = 0.007*[#   2]+0.007*[#   6]
    |psi|^2 = 0.013
==== e(   7) =     2.84149 eV ==== 
 
    |psi|^2 = 0.003
==== e(   8) =     3.79178 eV ==== 
     psi = 0.004*[#   2]+0.004*[#   6]
    |psi|^2 = 0.009
==== e(   9) =     4.26190 eV ==== 
 
    |psi|^2 = 0.003
==== e(  10) =     5.92187 eV ==== 
     psi = 0.005*[#   2]+0.005*[#   6]
    |psi|^2 = 0.010
==== e(  11) =     5.93613 eV ==== 
     psi = 0.219*[#   3]+0.219*[#   7]+0.132*[#   1]+0.132*[#   5]+0.073*[#   4]
          +0.073*[#   8]
    |psi|^2 = 0.849
==== e(  12) =     6.60010 eV ==== 
     psi = 0.017*[#   3]+0.017*[#   7]+0.006*[#   4]+0.006*[#   8]+0.004*[#   1]
          +0.004*[#   5]
    |psi|^2 = 0.052
==== e(  13) =     6.80059 eV ==== 
     psi = 0.482*[#   2]+0.482*[#   6]
    |psi|^2 = 0.964
==== e(  14) =     8.72411 eV ==== 
     psi = 0.351*[#   4]+0.351*[#   8]+0.117*[#   3]+0.117*[#   7]
    |psi|^2 = 0.935
==== e(  15) =     8.88490 eV ==== 
     psi = 0.003*[#   2]+0.003*[#   6]
    |psi|^2 = 0.005
==== e(  16) =     9.69640 eV ==== 
     psi = 0.002*[#   3]+0.002*[#   7]
    |psi|^2 = 0.006
==== e(  17) =    11.52101 eV ==== 
     psi = 0.378*[#   1]+0.378*[#   5]+0.069*[#   3]+0.069*[#   7]+0.023*[#   4]
          +0.023*[#   8]
    |psi|^2 = 0.942
==== e(  18) =    12.57504 eV ==== 
     psi = 0.001*[#   2]+0.001*[#   6]
    |psi|^2 = 0.002
==== e(  19) =    13.64186 eV ==== 
 
    |psi|^2 = 0.003
==== e(  20) =    16.90475 eV ==== 
     psi = 0.001*[#   2]+0.001*[#   6]
    |psi|^2 = 0.002
==== e(  21) =    18.37471 eV ==== 
 
    |psi|^2 = 0.001
==== e(  22) =    20.28376 eV ==== 
     psi = 0.006*[#   2]+0.006*[#   6]
    |psi|^2 = 0.011
==== e(  23) =    21.66329 eV ==== 
     psi = 0.009*[#   3]+0.009*[#   7]+0.006*[#   1]+0.006*[#   5]+0.003*[#   4]
          +0.003*[#   8]
    |psi|^2 = 0.035
==== e(  24) =    22.58045 eV ==== 
 
    |psi|^2 = 0.000
==== e(  25) =    22.69408 eV ==== 
     psi = 0.002*[#   2]+0.002*[#   6]
    |psi|^2 = 0.004
==== e(  26) =    23.67577 eV ==== 
     psi = 0.002*[#   1]+0.002*[#   5]
    |psi|^2 = 0.004
==== e(  27) =    23.97331 eV ==== 
 
    |psi|^2 = 0.001
==== e(  28) =    24.32493 eV ==== 
 
    |psi|^2 = 0.002
==== e(  29) =    24.42323 eV ==== 
 
    |psi|^2 = 0.000
==== e(  30) =    25.60108 eV ==== 
 
    |psi|^2 = 0.000
==== e(  31) =    25.76105 eV ==== 
     psi = 0.001*[#   1]+0.001*[#   5]
    |psi|^2 = 0.003
==== e(  32) =    27.19641 eV ==== 
     psi = 0.002*[#   2]+0.002*[#   6]
    |psi|^2 = 0.003
==== e(  33) =    28.01193 eV ==== 
     psi = 0.002*[#   1]+0.002*[#   5]
    |psi|^2 = 0.004
==== e(  34) =    28.40044 eV ==== 
     psi = 0.002*[#   2]+0.002*[#   6]
    |psi|^2 = 0.004
==== e(  35) =    28.40442 eV ==== 
     psi = 0.001*[#   4]+0.001*[#   8]
    |psi|^2 = 0.003
==== e(  36) =    28.98833 eV ==== 
 
    |psi|^2 = 0.001

 k =   0.1875000000  0.1082531755  0.0000000000
==== e(   1) =   -21.04560 eV ==== 
     psi = 0.389*[#   1]+0.389*[#   5]+0.076*[#   3]+0.076*[#   7]+0.025*[#   4]
          +0.025*[#   8]
    |psi|^2 = 0.982
==== e(   2) =    -8.98595 eV ==== 
     psi = 0.484*[#   2]+0.484*[#   6]
    |psi|^2 = 0.967
==== e(   3) =    -8.19640 eV ==== 
     psi = 0.324*[#   3]+0.324*[#   7]+0.108*[#   4]+0.108*[#   8]+0.065*[#   1]
          +0.065*[#   5]
    |psi|^2 = 0.994
==== e(   4) =    -6.76265 eV ==== 
     psi = 0.374*[#   4]+0.374*[#   8]+0.125*[#   3]+0.125*[#   7]
    |psi|^2 = 0.997
==== e(   5) =     2.01921 eV ==== 
     psi = 0.014*[#   3]+0.014*[#   7]+0.005*[#   4]+0.005*[#   8]
    |psi|^2 = 0.038
==== e(   6) =     2.77552 eV ==== 
     psi = 0.006*[#   2]+0.006*[#   6]
    |psi|^2 = 0.012
==== e(   7) =     2.99025 eV ==== 
 
    |psi|^2 = 0.003
==== e(   8) =     3.93825 eV ==== 
     psi = 0.004*[#   2]+0.004*[#   6]
    |psi|^2 = 0.008
==== e(   9) =     4.40876 eV ==== 
 
    |psi|^2 = 0.003
==== e(  10) =     5.90572 eV ==== 
     psi = 0.212*[#   3]+0.212*[#   7]+0.148*[#   1]+0.148*[#   5]+0.071*[#   4]
          +0.071*[#   8]
    |psi|^2 = 0.861
==== e(  11) =     6.05980 eV ==== 
     psi = 0.015*[#   2]+0.015*[#   6]
    |psi|^2 = 0.029
==== e(  12) =     6.51584 eV ==== 
     psi = 0.471*[#   2]+0.471*[#   6]
    |psi|^2 = 0.942
==== e(  13) =     6.74304 eV ==== 
     psi = 0.012*[#   3]+0.012*[#   7]+0.004*[#   4]+0.004*[#   8]+0.003*[#   1]
          +0.003*[#   5]
    |psi|^2 = 0.039
==== e(  14) =     9.02716 eV ==== 
     psi = 0.002*[#   2]+0.002*[#   6]
    |psi|^2 = 0.005
==== e(  15) =     9.08039 eV ==== 
     psi = 0.350*[#   4]+0.350*[#   8]+0.117*[#   3]+0.117*[#   7]
    |psi|^2 = 0.934
==== e(  16) =     9.84158 eV ==== 
     psi = 0.002*[#   3]+0.002*[#   7]
    |psi|^2 = 0.006
==== e(  17) =    11.72062 eV ==== 
     psi = 0.363*[#   1]+0.363*[#   5]+0.077*[#   3]+0.077*[#   7]+0.026*[#   4]
          +0.026*[#   8]
    |psi|^2 = 0.932
==== e(  18) =    12.70832 eV ==== 
     psi = 0.001*[#   2]+0.001*[#   6]
    |psi|^2 = 0.003
==== e(  19) =    13.78600 eV ==== 
 
    |psi|^2 = 0.003
==== e(  20) =    16.99027 eV ==== 
     psi = 0.001*[#   2]+0.001*[#   6]
    |psi|^2 = 0.003
==== e(  21) =    18.51420 eV ==== 
 
    |psi|^2 = 0.001
==== e(  22) =    19.98347 eV ==== 
     psi = 0.006*[#   2]+0.006*[#   6]
    |psi|^2 = 0.013
==== e(  23) =    21.60371 eV ==== 
     psi = 0.010*[#   3]+0.010*[#   7]+0.008*[#   1]+0.008*[#   5]+0.003*[#   4]
          +0.003*[#   8]
    |psi|^2 = 0.042
==== e(  24) =    22.33506 eV ==== 
 
    |psi|^2 = 0.000
==== e(  25) =    22.67305 eV ==== 
     psi = 0.001*[#   2]+0.001*[#   6]
    |psi|^2 = 0.002
==== e(  26) =    23.24121 eV ==== 
     psi = 0.002*[#   1]+0.002*[#   5]
    |psi|^2 = 0.005
==== e(  27) =    23.68552 eV ==== 
     psi = 0.001*[#   1]+0.001*[#   5]
    |psi|^2 = 0.002
==== e(  28) =    23.81282 eV ==== 
 
    |psi|^2 = 0.001
==== e(  29) =    24.11797 eV ==== 
 
    |psi|^2 = 0.001
==== e(  30) =    25.01090 eV ==== 
 
    |psi|^2 = 0.000
==== e(  31) =    25.13959 eV ==== 
     psi = 0.001*[#   1]+0.001*[#   5]
    |psi|^2 = 0.003
==== e(  32) =    26.82250 eV ==== 
 
    |psi|^2 = 0.001
==== e(  33) =    27.37943 eV ==== 
     psi = 0.002*[#   1]+0.002*[#   5]
    |psi|^2 = 0.005
==== e(  34) =    28.13397 eV ==== 
     psi = 0.003*[#   2]+0.003*[#   6]
    |psi|^2 = 0.006
==== e(  35) =    28.14405 eV ==== 
     psi = 0.001*[#   4]+0.001*[#   8]
    |psi|^2 = 0.003
==== e(  36) =    28.95199 eV ==== 
 
    |psi|^2 = 0.001

 k =   0.2000000000  0.1154700538  0.0000000000
==== e(   1) =   -20.93243 eV ==== 
     psi = 0.380*[#   1]+0.380*[#   5]+0.083*[#   3]+0.083*[#   7]+0.028*[#   4]
          +0.028*[#   8]
    |psi|^2 = 0.982
==== e(   2) =    -8.85265 eV ==== 
     psi = 0.485*[#   2]+0.485*[#   6]
    |psi|^2 = 0.969
==== e(   3) =    -8.50603 eV ==== 
     psi = 0.319*[#   3]+0.319*[#   7]+0.106*[#   4]+0.106*[#   8]+0.071*[#   1]
          +0.071*[#   5]
    |psi|^2 = 0.994
==== e(   4) =    -6.89697 eV ==== 
     psi = 0.374*[#   4]+0.374*[#   8]+0.125*[#   3]+0.125*[#   7]
    |psi|^2 = 0.997
==== e(   5) =     2.17435 eV ==== 
     psi = 0.014*[#   3]+0.014*[#   7]+0.005*[#   4]+0.005*[#   8]
    |psi|^2 = 0.038
==== e(   6) =     2.93204 eV ==== 
     psi = 0.006*[#   2]+0.006*[#   6]
    |psi|^2 = 0.012
==== e(   7) =     3.14927 eV ==== 
 
    |psi|^2 = 0.003
==== e(   8) =     4.09443 eV ==== 
     psi = 0.004*[#   2]+0.004*[#   6]
    |psi|^2 = 0.008
==== e(   9) =     4.56553 eV ==== 
 
    |psi|^2 = 0.003
==== e(  10) =     5.87012 eV ==== 
     psi = 0.203*[#   3]+0.203*[#   7]+0.163*[#   1]+0.163*[#   5]+0.068*[#   4]
          +0.068*[#   8]
    |psi|^2 = 0.869
==== e(  11) =     6.12883 eV ==== 
     psi = 0.275*[#   2]+0.275*[#   6]
    |psi|^2 = 0.551
==== e(  12) =     6.29955 eV ==== 
     psi = 0.208*[#   2]+0.208*[#   6]
    |psi|^2 = 0.417
==== e(  13) =     6.89691 eV ==== 
     psi = 0.010*[#   3]+0.010*[#   7]+0.003*[#   4]+0.003*[#   8]+0.002*[#   1]
          +0.002*[#   5]
    |psi|^2 = 0.031
==== e(  14) =     9.17894 eV ==== 
     psi = 0.002*[#   2]+0.002*[#   6]
    |psi|^2 = 0.005
==== e(  15) =     9.45000 eV ==== 
     psi = 0.349*[#   4]+0.349*[#   8]+0.116*[#   3]+0.116*[#   7]
    |psi|^2 = 0.932
==== e(  16) =     9.99660 eV ==== 
     psi = 0.002*[#   3]+0.002*[#   7]
    |psi|^2 = 0.006
==== e(  17) =    11.92657 eV ==== 
     psi = 0.348*[#   1]+0.348*[#   5]+0.084*[#   3]+0.084*[#   7]+0.028*[#   4]
          +0.028*[#   8]
    |psi|^2 = 0.921
==== e(  18) =    12.84956 eV ==== 
     psi = 0.001*[#   2]+0.001*[#   6]
    |psi|^2 = 0.003
==== e(  19) =    13.93983 eV ==== 
 
    |psi|^2 = 0.003
==== e(  20) =    17.06685 eV ==== 
     psi = 0.002*[#   2]+0.002*[#   6]
    |psi|^2 = 0.004
==== e(  21) =    18.66248 eV ==== 
 
    |psi|^2 = 0.001
==== e(  22) =    19.69049 eV ==== 
     psi = 0.007*[#   2]+0.007*[#   6]
    |psi|^2 = 0.014
==== e(  23) =    21.37287 eV ==== 
     psi = 0.010*[#   3]+0.010*[#   7]+0.009*[#   1]+0.009*[#   5]+0.003*[#   4]
          +0.003*[#   8]
    |psi|^2 = 0.046
==== e(  24) =    22.09792 eV ==== 
 
    |psi|^2 = 0.000
==== e(  25) =    22.57019 eV ==== 
 
    |psi|^2 = 0.001
==== e(  26) =    22.77463 eV ==== 
     psi = 0.001*[#   3]+0.001*[#   7]
    |psi|^2 = 0.005
==== e(  27) =    23.24028 eV ==== 
     psi = 0.003*[#   1]+0.003*[#   5]+0.001*[#   3]+0.001*[#   7]
    |psi|^2 = 0.009
==== e(  28) =    23.28578 eV ==== 
 
    |psi|^2 = 0.001
==== e(  29) =    24.22528 eV ==== 
 
    |psi|^2 = 0.002
==== e(  30) =    24.45349 eV ==== 
 
    |psi|^2 = 0.001
==== e(  31) =    24.59517 eV ==== 
     psi = 0.002*[#   1]+0.002*[#   5]
    |psi|^2 = 0.004
==== e(  32) =    26.33624 eV ==== 
 
    |psi|^2 = 0.000
==== e(  33) =    26.76371 eV ==== 
     psi = 0.002*[#   1]+0.002*[#   5]
    |psi|^2 = 0.005
==== e(  34) =    27.89341 eV ==== 
     psi = 0.001*[#   4]+0.001*[#   8]
    |psi|^2 = 0.004
==== e(  35) =    27.93423 eV ==== 
     psi = 0.003*[#   2]+0.003*[#   6]
    |psi|^2 = 0.006
==== e(  36) =    28.86394 eV ==== 
     psi = 0.001*[#   1]+0.001*[#   5]
    |psi|^2 = 0.004

 k =   0.2125000000  0.1226869322  0.0000000000
==== e(   1) =   -20.81213 eV ==== 
     psi = 0.371*[#   1]+0.371*[#   5]+0.090*[#   3]+0.090*[#   7]+0.030*[#   4]
          +0.030*[#   8]
    |psi|^2 = 0.982
==== e(   2) =    -8.82187 eV ==== 
     psi = 0.315*[#   3]+0.315*[#   7]+0.105*[#   4]+0.105*[#   8]+0.077*[#   1]
          +0.077*[#   5]
    |psi|^2 = 0.993
==== e(   3) =    -8.71134 eV ==== 
     psi = 0.486*[#   2]+0.486*[#   6]
    |psi|^2 = 0.972
==== e(   4) =    -7.03044 eV ==== 
     psi = 0.374*[#   4]+0.374*[#   8]+0.125*[#   3]+0.125*[#   7]
    |psi|^2 = 0.997
==== e(   5) =     2.33942 eV ==== 
     psi = 0.014*[#   3]+0.014*[#   7]+0.005*[#   4]+0.005*[#   8]
    |psi|^2 = 0.038
==== e(   6) =     3.09828 eV ==== 
     psi = 0.006*[#   2]+0.006*[#   6]
    |psi|^2 = 0.011
==== e(   7) =     3.31853 eV ==== 
 
    |psi|^2 = 0.002
==== e(   8) =     4.25993 eV ==== 
     psi = 0.004*[#   2]+0.004*[#   6]
    |psi|^2 = 0.009
==== e(   9) =     4.73206 eV ==== 
     psi = 0.001*[#   1]+0.001*[#   5]
    |psi|^2 = 0.003
==== e(  10) =     5.83058 eV ==== 
     psi = 0.195*[#   3]+0.195*[#   7]+0.178*[#   1]+0.178*[#   5]+0.065*[#   4]
          +0.065*[#   8]
    |psi|^2 = 0.875
==== e(  11) =     5.87208 eV ==== 
     psi = 0.462*[#   2]+0.462*[#   6]
    |psi|^2 = 0.925
==== e(  12) =     6.41038 eV ==== 
     psi = 0.019*[#   2]+0.019*[#   6]
    |psi|^2 = 0.039
==== e(  13) =     7.06139 eV ==== 
     psi = 0.008*[#   3]+0.008*[#   7]+0.003*[#   4]+0.003*[#   8]+0.002*[#   1]
          +0.002*[#   5]
    |psi|^2 = 0.025
==== e(  14) =     9.34017 eV ==== 
     psi = 0.002*[#   2]+0.002*[#   6]
    |psi|^2 = 0.005
==== e(  15) =     9.83160 eV ==== 
     psi = 0.349*[#   4]+0.349*[#   8]+0.116*[#   3]+0.116*[#   7]
    |psi|^2 = 0.930
==== e(  16) =    10.16144 eV ==== 
     psi = 0.002*[#   3]+0.002*[#   7]
    |psi|^2 = 0.006
==== e(  17) =    12.13641 eV ==== 
     psi = 0.333*[#   1]+0.333*[#   5]+0.091*[#   3]+0.091*[#   7]+0.030*[#   4]
          +0.030*[#   8]
    |psi|^2 = 0.908
==== e(  18) =    12.99833 eV ==== 
     psi = 0.001*[#   2]+0.001*[#   6]
    |psi|^2 = 0.003
==== e(  19) =    14.10328 eV ==== 
 
    |psi|^2 = 0.003
==== e(  20) =    17.12625 eV ==== 
     psi = 0.003*[#   2]+0.003*[#   6]
    |psi|^2 = 0.005
==== e(  21) =    18.81918 eV ==== 
 
    |psi|^2 = 0.001
==== e(  22) =    19.41804 eV ==== 
     psi = 0.007*[#   2]+0.007*[#   6]
    |psi|^2 = 0.014
==== e(  23) =    20.98679 eV ==== 
     psi = 0.010*[#   3]+0.010*[#   7]+0.010*[#   1]+0.010*[#   5]+0.003*[#   4]
          +0.003*[#   8]
    |psi|^2 = 0.047
==== e(  24) =    21.86933 eV ==== 
 
    |psi|^2 = 0.000
==== e(  25) =    22.19983 eV ==== 
 
    |psi|^2 = 0.004
==== e(  26) =    22.23327 eV ==== 
 
    |psi|^2 = 0.000
==== e(  27) =    22.94248 eV ==== 
 
    |psi|^2 = 0.001
==== e(  28) =    22.98242 eV ==== 
     psi = 0.004*[#   3]+0.004*[#   7]+0.004*[#   1]+0.004*[#   5]+0.001*[#   4]
          +0.001*[#   8]
    |psi|^2 = 0.018
==== e(  29) =    23.97374 eV ==== 
     psi = 0.002*[#   1]+0.002*[#   5]
    |psi|^2 = 0.005
==== e(  30) =    23.97533 eV ==== 
 
    |psi|^2 = 0.001
==== e(  31) =    24.50612 eV ==== 
 
    |psi|^2 = 0.003
==== e(  32) =    25.81259 eV ==== 
 
    |psi|^2 = 0.000
==== e(  33) =    26.17304 eV ==== 
     psi = 0.002*[#   1]+0.002*[#   5]
    |psi|^2 = 0.006
==== e(  34) =    27.65250 eV ==== 
     psi = 0.001*[#   4]+0.001*[#   8]
    |psi|^2 = 0.004
==== e(  35) =    27.71155 eV ==== 
     psi = 0.003*[#   2]+0.003*[#   6]
    |psi|^2 = 0.005
==== e(  36) =    28.59899 eV ==== 
     psi = 0.002*[#   1]+0.002*[#   5]
    |psi|^2 = 0.006

 k =   0.2250000000  0.1299038106  0.0000000000
==== e(   1) =   -20.68475 eV ==== 
     psi = 0.363*[#   1]+0.363*[#   5]+0.096*[#   3]+0.096*[#   7]+0.032*[#   4]
          +0.032*[#   8]
    |psi|^2 = 0.981
==== e(   2) =    -9.14275 eV ==== 
     psi = 0.310*[#   3]+0.310*[#   7]+0.103*[#   4]+0.103*[#   8]+0.083*[#   1]
          +0.083*[#   5]
    |psi|^2 = 0.993
==== e(   3) =    -8.56218 eV ==== 
     psi = 0.487*[#   2]+0.487*[#   6]
    |psi|^2 = 0.974
==== e(   4) =    -7.16228 eV ==== 
     psi = 0.374*[#   4]+0.374*[#   8]+0.125*[#   3]+0.125*[#   7]
    |psi|^2 = 0.997
==== e(   5) =     2.51441 eV ==== 
     psi = 0.014*[#   3]+0.014*[#   7]+0.005*[#   4]+0.005*[#   8]
    |psi|^2 = 0.037
==== e(   6) =     3.27398 eV ==== 
     psi = 0.006*[#   2]+0.006*[#   6]
    |psi|^2 = 0.011
==== e(   7) =     3.49804 eV ==== 
 
    |psi|^2 = 0.002
==== e(   8) =     4.43366 eV ==== 
     psi = 0.006*[#   2]+0.006*[#   6]
    |psi|^2 = 0.012
==== e(   9) =     4.90800 eV ==== 
     psi = 0.002*[#   1]+0.002*[#   5]
    |psi|^2 = 0.004
==== e(  10) =     5.56088 eV ==== 
     psi = 0.470*[#   2]+0.470*[#   6]
    |psi|^2 = 0.940
==== e(  11) =     5.78838 eV ==== 
     psi = 0.191*[#   1]+0.191*[#   5]+0.186*[#   3]+0.186*[#   7]+0.062*[#   4]
          +0.062*[#   8]
    |psi|^2 = 0.878
==== e(  12) =     6.57953 eV ==== 
     psi = 0.008*[#   2]+0.008*[#   6]
    |psi|^2 = 0.017
==== e(  13) =     7.23630 eV ==== 
     psi = 0.007*[#   3]+0.007*[#   7]+0.002*[#   4]+0.002*[#   8]+0.002*[#   1]
          +0.002*[#   5]
    |psi|^2 = 0.021
==== e(  14) =     9.51074 eV ==== 
     psi = 0.002*[#   2]+0.002*[#   6]
    |psi|^2 = 0.004
==== e(  15) =    10.22385 eV ==== 
     psi = 0.348*[#   4]+0.348*[#   8]+0.116*[#   3]+0.116*[#   7]
    |psi|^2 = 0.928
==== e(  16) =    10.33609 eV ==== 
     psi = 0.002*[#   3]+0.002*[#   7]
    |psi|^2 = 0.006
==== e(  17) =    12.34734 eV ==== 
     psi = 0.317*[#   1]+0.317*[#   5]+0.096*[#   3]+0.096*[#   7]+0.032*[#   4]
          +0.032*[#   8]
    |psi|^2 = 0.892
==== e(  18) =    13.15406 eV ==== 
     psi = 0.001*[#   2]+0.001*[#   6]
    |psi|^2 = 0.003
==== e(  19) =    14.27629 eV ==== 
 
    |psi|^2 = 0.003
==== e(  20) =    17.15660 eV ==== 
     psi = 0.004*[#   2]+0.004*[#   6]
    |psi|^2 = 0.007
==== e(  21) =    18.98352 eV ==== 
 
    |psi|^2 = 0.001
==== e(  22) =    19.17935 eV ==== 
     psi = 0.007*[#   2]+0.007*[#   6]
    |psi|^2 = 0.013
==== e(  23) =    20.51325 eV ==== 
     psi = 0.011*[#   1]+0.011*[#   5]+0.010*[#   3]+0.010*[#   7]+0.003*[#   4]
          +0.003*[#   8]
    |psi|^2 = 0.050
==== e(  24) =    21.58745 eV ==== 
     psi = 0.001*[#   3]+0.001*[#   7]
    |psi|^2 = 0.004
==== e(  25) =    21.64956 eV ==== 
 
    |psi|^2 = 0.000
==== e(  26) =    21.71318 eV ==== 
 
    |psi|^2 = 0.000
==== e(  27) =    22.64335 eV ==== 
 
    |psi|^2 = 0.000
==== e(  28) =    22.68360 eV ==== 
     psi = 0.005*[#   3]+0.005*[#   7]+0.004*[#   1]+0.004*[#   5]+0.002*[#   4]
          +0.002*[#   8]
    |psi|^2 = 0.022
==== e(  29) =    23.65208 eV ==== 
     psi = 0.004*[#   1]+0.004*[#   5]+0.002*[#   3]+0.002*[#   7]
    |psi|^2 = 0.013
==== e(  30) =    23.65308 eV ==== 
     psi = 0.001*[#   2]+0.001*[#   6]
    |psi|^2 = 0.002
==== e(  31) =    24.65050 eV ==== 
     psi = 0.001*[#   3]+0.001*[#   7]
    |psi|^2 = 0.004
==== e(  32) =    25.29777 eV ==== 
 
    |psi|^2 = 0.000
==== e(  33) =    25.62835 eV ==== 
     psi = 0.003*[#   1]+0.003*[#   5]
    |psi|^2 = 0.007
==== e(  34) =    27.42130 eV ==== 
     psi = 0.002*[#   4]+0.002*[#   8]
    |psi|^2 = 0.004
==== e(  35) =    27.42605 eV ==== 
     psi = 0.002*[#   2]+0.002*[#   6]
    |psi|^2 = 0.004
==== e(  36) =    28.28154 eV ==== 
     psi = 0.003*[#   1]+0.003*[#   5]+0.001*[#   3]+0.001*[#   7]
    |psi|^2 = 0.009

 k =   0.2375000000  0.1371206889  0.0000000000
==== e(   1) =   -20.55032 eV ==== 
     psi = 0.355*[#   1]+0.355*[#   5]+0.102*[#   3]+0.102*[#   7]+0.034*[#   4]
          +0.034*[#   8]
    |psi|^2 = 0.981
==== e(   2) =    -9.46758 eV ==== 
     psi = 0.306*[#   3]+0.306*[#   7]+0.102*[#   4]+0.102*[#   8]+0.089*[#   1]
          +0.089*[#   5]
    |psi|^2 = 0.993
==== e(   3) =    -8.40532 eV ==== 
     psi = 0.488*[#   2]+0.488*[#   6]
    |psi|^2 = 0.976
==== e(   4) =    -7.29181 eV ==== 
     psi = 0.374*[#   4]+0.374*[#   8]+0.125*[#   3]+0.125*[#   7]
    |psi|^2 = 0.997
==== e(   5) =     2.69929 eV ==== 
     psi = 0.013*[#   3]+0.013*[#   7]+0.004*[#   4]+0.004*[#   8]
    |psi|^2 = 0.035
==== e(   6) =     3.45851 eV ==== 
     psi = 0.006*[#   2]+0.006*[#   6]
    |psi|^2 = 0.012
==== e(   7) =     3.68779 eV ==== 
 
    |psi|^2 = 0.002
==== e(   8) =     4.61102 eV ==== 
     psi = 0.015*[#   2]+0.015*[#   6]
    |psi|^2 = 0.030
==== e(   9) =     5.09247 eV ==== 
     psi = 0.004*[#   1]+0.004*[#   5]
    |psi|^2 = 0.008
==== e(  10) =     5.24596 eV ==== 
     psi = 0.461*[#   2]+0.461*[#   6]
    |psi|^2 = 0.922
==== e(  11) =     5.74528 eV ==== 
     psi = 0.202*[#   1]+0.202*[#   5]+0.177*[#   3]+0.177*[#   7]+0.059*[#   4]
          +0.059*[#   8]
    |psi|^2 = 0.878
==== e(  12) =     6.76265 eV ==== 
     psi = 0.006*[#   2]+0.006*[#   6]
    |psi|^2 = 0.011
==== e(  13) =     7.42149 eV ==== 
     psi = 0.005*[#   3]+0.005*[#   7]+0.002*[#   4]+0.002*[#   8]+0.001*[#   1]
          +0.001*[#   5]
    |psi|^2 = 0.017
==== e(  14) =     9.69055 eV ==== 
     psi = 0.002*[#   2]+0.002*[#   6]
    |psi|^2 = 0.004
==== e(  15) =    10.52054 eV ==== 
     psi = 0.001*[#   3]+0.001*[#   7]
    |psi|^2 = 0.006
==== e(  16) =    10.62540 eV ==== 
     psi = 0.347*[#   4]+0.347*[#   8]+0.116*[#   3]+0.116*[#   7]
    |psi|^2 = 0.926
==== e(  17) =    12.55612 eV ==== 
     psi = 0.302*[#   1]+0.302*[#   5]+0.101*[#   3]+0.101*[#   7]+0.034*[#   4]
          +0.034*[#   8]
    |psi|^2 = 0.872
==== e(  18) =    13.31597 eV ==== 
     psi = 0.002*[#   2]+0.002*[#   6]
    |psi|^2 = 0.003
==== e(  19) =    14.45876 eV ==== 
 
    |psi|^2 = 0.003
==== e(  20) =    17.14311 eV ==== 
     psi = 0.005*[#   2]+0.005*[#   6]
    |psi|^2 = 0.011
==== e(  21) =    18.98735 eV ==== 
     psi = 0.006*[#   2]+0.006*[#   6]
    |psi|^2 = 0.011
==== e(  22) =    19.15283 eV ==== 
 
    |psi|^2 = 0.002
==== e(  23) =    20.00572 eV ==== 
     psi = 0.012*[#   1]+0.012*[#   5]+0.011*[#   3]+0.011*[#   7]+0.004*[#   4]
          +0.004*[#   8]
    |psi|^2 = 0.053
==== e(  24) =    20.97262 eV ==== 
     psi = 0.001*[#   1]+0.001*[#   3]+0.001*[#   5]+0.001*[#   7]
    |psi|^2 = 0.005
==== e(  25) =    21.14982 eV ==== 
 
    |psi|^2 = 0.001
==== e(  26) =    21.43882 eV ==== 
 
    |psi|^2 = 0.000
==== e(  27) =    22.22945 eV ==== 
 
    |psi|^2 = 0.000
==== e(  28) =    22.23468 eV ==== 
     psi = 0.005*[#   3]+0.005*[#   7]+0.004*[#   1]+0.004*[#   5]+0.002*[#   4]
          +0.002*[#   8]
    |psi|^2 = 0.021
==== e(  29) =    23.47892 eV ==== 
 
    |psi|^2 = 0.002
==== e(  30) =    23.48573 eV ==== 
     psi = 0.006*[#   1]+0.006*[#   5]+0.005*[#   3]+0.005*[#   7]+0.002*[#   4]
          +0.002*[#   8]
    |psi|^2 = 0.026
==== e(  31) =    24.72745 eV ==== 
 
    |psi|^2 = 0.003
==== e(  32) =    24.83384 eV ==== 
 
    |psi|^2 = 0.001
==== e(  33) =    25.22458 eV ==== 
     psi = 0.003*[#   1]+0.003*[#   5]
    |psi|^2 = 0.008
==== e(  34) =    27.07226 eV ==== 
     psi = 0.001*[#   2]+0.001*[#   6]
    |psi|^2 = 0.002
==== e(  35) =    27.19980 eV ==== 
     psi = 0.002*[#   4]+0.002*[#   8]
    |psi|^2 = 0.004
==== e(  36) =    27.84506 eV ==== 
     psi = 0.003*[#   1]+0.003*[#   5]+0.001*[#   3]+0.001*[#   7]
    |psi|^2 = 0.010

 k =   0.2500000000  0.1443375673  0.0000000000
==== e(   1) =   -20.40888 eV ==== 
     psi = 0.347*[#   1]+0.347*[#   5]+0.108*[#   3]+0.108*[#   7]+0.036*[#   4]
          +0.036*[#   8]
    |psi|^2 = 0.981
==== e(   2) =    -9.79537 eV ==== 
     psi = 0.301*[#   3]+0.301*[#   7]+0.100*[#   4]+0.100*[#   8]+0.094*[#   1]
          +0.094*[#   5]
    |psi|^2 = 0.992
==== e(   3) =    -8.24096 eV ==== 
     psi = 0.489*[#   2]+0.489*[#   6]
    |psi|^2 = 0.979
==== e(   4) =    -7.41839 eV ==== 
     psi = 0.374*[#   4]+0.374*[#   8]+0.125*[#   3]+0.125*[#   7]
    |psi|^2 = 0.997
==== e(   5) =     2.89401 eV ==== 
     psi = 0.012*[#   3]+0.012*[#   7]+0.004*[#   4]+0.004*[#   8]
    |psi|^2 = 0.033
==== e(   6) =     3.65021 eV ==== 
     psi = 0.009*[#   2]+0.009*[#   6]
    |psi|^2 = 0.017
==== e(   7) =     3.88776 eV ==== 
 
    |psi|^2 = 0.002
==== e(   8) =     4.74047 eV ==== 
     psi = 0.164*[#   2]+0.164*[#   6]
    |psi|^2 = 0.329
==== e(   9) =     4.98466 eV ==== 
     psi = 0.309*[#   2]+0.309*[#   6]
    |psi|^2 = 0.618
==== e(  10) =     5.28255 eV ==== 
     psi = 0.010*[#   1]+0.010*[#   5]+0.002*[#   3]+0.002*[#   7]
    |psi|^2 = 0.026
==== e(  11) =     5.70501 eV ==== 
     psi = 0.208*[#   1]+0.208*[#   5]+0.167*[#   3]+0.167*[#   7]+0.056*[#   4]
          +0.056*[#   8]
    |psi|^2 = 0.863
==== e(  12) =     6.95673 eV ==== 
     psi = 0.004*[#   2]+0.004*[#   6]
    |psi|^2 = 0.009
==== e(  13) =     7.61690 eV ==== 
     psi = 0.005*[#   3]+0.005*[#   7]+0.002*[#   4]+0.002*[#   8]+0.001*[#   1]
          +0.001*[#   5]
    |psi|^2 = 0.015
==== e(  14) =     9.87945 eV ==== 
     psi = 0.002*[#   2]+0.002*[#   6]
    |psi|^2 = 0.004
==== e(  15) =    10.71475 eV ==== 
     psi = 0.001*[#   3]+0.001*[#   7]
    |psi|^2 = 0.005
==== e(  16) =    11.03492 eV ==== 
     psi = 0.347*[#   4]+0.347*[#   8]+0.116*[#   3]+0.116*[#   7]
    |psi|^2 = 0.925
==== e(  17) =    12.75885 eV ==== 
     psi = 0.285*[#   1]+0.285*[#   5]+0.104*[#   3]+0.104*[#   7]+0.035*[#   4]
          +0.035*[#   8]
    |psi|^2 = 0.849
==== e(  18) =    13.48298 eV ==== 
     psi = 0.002*[#   2]+0.002*[#   6]
    |psi|^2 = 0.004
==== e(  19) =    14.65059 eV ==== 
 
    |psi|^2 = 0.002
==== e(  20) =    17.07274 eV ==== 
     psi = 0.007*[#   2]+0.007*[#   6]
    |psi|^2 = 0.014
==== e(  21) =    18.84906 eV ==== 
     psi = 0.004*[#   2]+0.004*[#   6]
    |psi|^2 = 0.008
==== e(  22) =    19.29217 eV ==== 
     psi = 0.005*[#   1]+0.005*[#   5]+0.004*[#   3]+0.004*[#   7]+0.001*[#   4]
          +0.001*[#   8]
    |psi|^2 = 0.020
==== e(  23) =    19.52481 eV ==== 
     psi = 0.010*[#   1]+0.010*[#   5]+0.009*[#   3]+0.009*[#   7]+0.003*[#   4]
          +0.003*[#   8]
    |psi|^2 = 0.044
==== e(  24) =    20.36470 eV ==== 
     psi = 0.002*[#   1]+0.002*[#   5]+0.001*[#   3]+0.001*[#   7]
    |psi|^2 = 0.007
==== e(  25) =    20.58796 eV ==== 
 
    |psi|^2 = 0.001
==== e(  26) =    21.23727 eV ==== 
 
    |psi|^2 = 0.000
==== e(  27) =    21.70586 eV ==== 
     psi = 0.005*[#   3]+0.005*[#   7]+0.004*[#   1]+0.004*[#   5]+0.002*[#   4]
          +0.002*[#   8]
    |psi|^2 = 0.021
==== e(  28) =    21.74889 eV ==== 
 
    |psi|^2 = 0.000
==== e(  29) =    23.30513 eV ==== 
 
    |psi|^2 = 0.001
==== e(  30) =    23.33737 eV ==== 
     psi = 0.008*[#   3]+0.008*[#   7]+0.007*[#   1]+0.007*[#   5]+0.003*[#   4]
          +0.003*[#   8]
    |psi|^2 = 0.036
==== e(  31) =    24.48477 eV ==== 
 
    |psi|^2 = 0.001
==== e(  32) =    24.51853 eV ==== 
     psi = 0.003*[#   1]+0.003*[#   5]
    |psi|^2 = 0.007
==== e(  33) =    25.20695 eV ==== 
     psi = 0.002*[#   3]+0.002*[#   7]+0.002*[#   1]+0.002*[#   5]
    |psi|^2 = 0.008
==== e(  34) =    26.66767 eV ==== 
 
    |psi|^2 = 0.001
==== e(  35) =    26.98798 eV ==== 
     psi = 0.002*[#   4]+0.002*[#   8]
    |psi|^2 = 0.004
==== e(  36) =    27.33582 eV ==== 
     psi = 0.004*[#   1]+0.004*[#   5]+0.001*[#   3]+0.001*[#   7]
    |psi|^2 = 0.010

 k =   0.2625000000  0.1515544457  0.0000000000
==== e(   1) =   -20.26050 eV ==== 
     psi = 0.339*[#   1]+0.339*[#   5]+0.114*[#   3]+0.114*[#   7]+0.038*[#   4]
          +0.038*[#   8]
    |psi|^2 = 0.981
==== e(   2) =   -10.12523 eV ==== 
     psi = 0.297*[#   3]+0.297*[#   7]+0.100*[#   1]+0.100*[#   5]+0.099*[#   4]
          +0.099*[#   8]
    |psi|^2 = 0.992
==== e(   3) =    -8.06933 eV ==== 
     psi = 0.490*[#   2]+0.490*[#   6]
    |psi|^2 = 0.981
==== e(   4) =    -7.54146 eV ==== 
     psi = 0.374*[#   4]+0.374*[#   8]+0.125*[#   3]+0.125*[#   7]
    |psi|^2 = 0.997
==== e(   5) =     3.09854 eV ==== 
     psi = 0.011*[#   3]+0.011*[#   7]+0.004*[#   4]+0.004*[#   8]
    |psi|^2 = 0.031
==== e(   6) =     3.84232 eV ==== 
     psi = 0.021*[#   2]+0.021*[#   6]
    |psi|^2 = 0.043
==== e(   7) =     4.09794 eV ==== 
 
    |psi|^2 = 0.002
==== e(   8) =     4.54058 eV ==== 
     psi = 0.427*[#   2]+0.427*[#   6]
    |psi|^2 = 0.854
==== e(   9) =     5.06701 eV ==== 
     psi = 0.033*[#   2]+0.033*[#   6]
    |psi|^2 = 0.065
==== e(  10) =     5.46176 eV ==== 
     psi = 0.051*[#   1]+0.051*[#   5]+0.022*[#   3]+0.022*[#   7]+0.007*[#   4]
          +0.007*[#   8]
    |psi|^2 = 0.161
==== e(  11) =     5.68477 eV ==== 
     psi = 0.180*[#   1]+0.180*[#   5]+0.140*[#   3]+0.140*[#   7]+0.047*[#   4]
          +0.047*[#   8]
    |psi|^2 = 0.732
==== e(  12) =     7.16106 eV ==== 
     psi = 0.004*[#   2]+0.004*[#   6]
    |psi|^2 = 0.008
==== e(  13) =     7.82244 eV ==== 
     psi = 0.004*[#   3]+0.004*[#   7]+0.001*[#   4]+0.001*[#   8]
    |psi|^2 = 0.013
==== e(  14) =    10.07726 eV ==== 
     psi = 0.002*[#   2]+0.002*[#   6]
    |psi|^2 = 0.004
==== e(  15) =    10.91871 eV ==== 
     psi = 0.001*[#   3]+0.001*[#   7]
    |psi|^2 = 0.005
==== e(  16) =    11.45099 eV ==== 
     psi = 0.346*[#   4]+0.346*[#   8]+0.115*[#   3]+0.115*[#   7]
    |psi|^2 = 0.924
==== e(  17) =    12.95070 eV ==== 
     psi = 0.268*[#   1]+0.268*[#   5]+0.106*[#   3]+0.106*[#   7]+0.035*[#   4]
          +0.035*[#   8]
    |psi|^2 = 0.819
==== e(  18) =    13.65354 eV ==== 
     psi = 0.002*[#   2]+0.002*[#   6]
    |psi|^2 = 0.004
==== e(  19) =    14.85162 eV ==== 
 
    |psi|^2 = 0.002
==== e(  20) =    16.94184 eV ==== 
     psi = 0.009*[#   2]+0.009*[#   6]
    |psi|^2 = 0.018
==== e(  21) =    18.75414 eV ==== 
     psi = 0.002*[#   2]+0.002*[#   6]
    |psi|^2 = 0.004
==== e(  22) =    18.93436 eV ==== 
     psi = 0.018*[#   1]+0.018*[#   5]+0.014*[#   3]+0.014*[#   7]+0.005*[#   4]
          +0.005*[#   8]
    |psi|^2 = 0.073
==== e(  23) =    19.54538 eV ==== 
 
    |psi|^2 = 0.001
==== e(  24) =    19.77227 eV ==== 
     psi = 0.002*[#   1]+0.002*[#   5]+0.002*[#   3]+0.002*[#   7]
    |psi|^2 = 0.010
==== e(  25) =    20.04651 eV ==== 
 
    |psi|^2 = 0.002
==== e(  26) =    21.04504 eV ==== 
 
    |psi|^2 = 0.000
==== e(  27) =    21.15420 eV ==== 
     psi = 0.005*[#   3]+0.005*[#   7]+0.005*[#   1]+0.005*[#   5]+0.002*[#   4]
          +0.002*[#   8]
    |psi|^2 = 0.024
==== e(  28) =    21.25831 eV ==== 
 
    |psi|^2 = 0.001
==== e(  29) =    23.01246 eV ==== 
 
    |psi|^2 = 0.000
==== e(  30) =    23.07613 eV ==== 
     psi = 0.010*[#   3]+0.010*[#   7]+0.007*[#   1]+0.007*[#   5]+0.003*[#   4]
          +0.003*[#   8]
    |psi|^2 = 0.040
==== e(  31) =    24.28412 eV ==== 
     psi = 0.006*[#   1]+0.006*[#   5]+0.002*[#   3]+0.002*[#   7]
    |psi|^2 = 0.017
==== e(  32) =    24.30357 eV ==== 
 
    |psi|^2 = 0.002
==== e(  33) =    25.36283 eV ==== 
     psi = 0.002*[#   3]+0.002*[#   7]+0.001*[#   1]+0.001*[#   5]
    |psi|^2 = 0.008
==== e(  34) =    26.24255 eV ==== 
 
    |psi|^2 = 0.000
==== e(  35) =    26.78580 eV ==== 
     psi = 0.002*[#   4]+0.002*[#   8]
    |psi|^2 = 0.005
==== e(  36) =    26.82569 eV ==== 
     psi = 0.004*[#   1]+0.004*[#   5]
    |psi|^2 = 0.010

 k =   0.2750000000  0.1587713240  0.0000000000
==== e(   1) =   -20.10522 eV ==== 
     psi = 0.332*[#   1]+0.332*[#   5]+0.119*[#   3]+0.119*[#   7]+0.040*[#   4]
          +0.040*[#   8]
    |psi|^2 = 0.981
==== e(   2) =   -10.45633 eV ==== 
     psi = 0.293*[#   3]+0.293*[#   7]+0.105*[#   1]+0.105*[#   5]+0.098*[#   4]
          +0.098*[#   8]
    |psi|^2 = 0.992
==== e(   3) =    -7.89068 eV ==== 
     psi = 0.492*[#   2]+0.492*[#   6]
    |psi|^2 = 0.983
==== e(   4) =    -7.66052 eV ==== 
     psi = 0.374*[#   4]+0.374*[#   8]+0.125*[#   3]+0.125*[#   7]
    |psi|^2 = 0.997
==== e(   5) =     3.31282 eV ==== 
     psi = 0.010*[#   3]+0.010*[#   7]+0.003*[#   4]+0.003*[#   8]
    |psi|^2 = 0.028
==== e(   6) =     3.97549 eV ==== 
     psi = 0.165*[#   2]+0.165*[#   6]
    |psi|^2 = 0.330
==== e(   7) =     4.29451 eV ==== 
     psi = 0.304*[#   2]+0.304*[#   6]
    |psi|^2 = 0.608
==== e(   8) =     4.31829 eV ==== 
 
    |psi|^2 = 0.001
==== e(   9) =     5.27055 eV ==== 
     psi = 0.011*[#   2]+0.011*[#   6]
    |psi|^2 = 0.022
==== e(  10) =     5.53844 eV ==== 
     psi = 0.194*[#   1]+0.194*[#   5]+0.109*[#   3]+0.109*[#   7]+0.036*[#   4]
          +0.036*[#   8]
    |psi|^2 = 0.679
==== e(  11) =     5.77697 eV ==== 
     psi = 0.048*[#   1]+0.048*[#   5]+0.045*[#   3]+0.045*[#   7]+0.015*[#   4]
          +0.015*[#   8]
    |psi|^2 = 0.217
==== e(  12) =     7.37534 eV ==== 
[...]
          +0.005*[#   8]
    |psi|^2 = 0.974
==== e(  18) =    11.88096 eV ==== 
     psi = 0.001*[#   2]+0.001*[#   6]
    |psi|^2 = 0.003
==== e(  19) =    12.90228 eV ==== 
 
    |psi|^2 = 0.002
==== e(  20) =    16.34604 eV ==== 
 
    |psi|^2 = 0.002
==== e(  21) =    17.65238 eV ==== 
 
    |psi|^2 = 0.001
==== e(  22) =    20.66573 eV ==== 
     psi = 0.002*[#   3]+0.002*[#   7]+0.001*[#   1]+0.001*[#   5]
    |psi|^2 = 0.007
==== e(  23) =    21.34762 eV ==== 
 
    |psi|^2 = 0.001
==== e(  24) =    23.17377 eV ==== 
 
    |psi|^2 = 0.000
==== e(  25) =    23.86392 eV ==== 
 
    |psi|^2 = 0.000
==== e(  26) =    24.82033 eV ==== 
     psi = 0.004*[#   2]+0.004*[#   6]
    |psi|^2 = 0.008
==== e(  27) =    26.67118 eV ==== 
 
    |psi|^2 = 0.000
==== e(  28) =    28.76078 eV ==== 
     psi = 0.002*[#   1]+0.002*[#   5]
    |psi|^2 = 0.006
==== e(  29) =    28.83478 eV ==== 
 
    |psi|^2 = 0.000
==== e(  30) =    29.14416 eV ==== 
 
    |psi|^2 = 0.001
==== e(  31) =    29.45679 eV ==== 
 
    |psi|^2 = 0.000
==== e(  32) =    30.05056 eV ==== 
 
    |psi|^2 = 0.000
==== e(  33) =    30.05412 eV ==== 
 
    |psi|^2 = 0.000
==== e(  34) =    30.08226 eV ==== 
 
    |psi|^2 = 0.000
==== e(  35) =    30.25885 eV ==== 
 
    |psi|^2 = 0.000
==== e(  36) =    30.99409 eV ==== 
 
    |psi|^2 = 0.001

 k =   0.0833333333  0.0000000000  0.0000000000
==== e(   1) =   -21.74867 eV ==== 
     psi = 0.470*[#   1]+0.470*[#   5]+0.021*[#   3]+0.021*[#   7]
    |psi|^2 = 0.984
==== e(   2) =    -9.82085 eV ==== 
     psi = 0.475*[#   2]+0.475*[#   6]
    |psi|^2 = 0.950
==== e(   3) =    -5.89480 eV ==== 
     psi = 0.474*[#   3]+0.474*[#   7]+0.012*[#   1]+0.012*[#   4]+0.012*[#   5]
          +0.012*[#   8]
    |psi|^2 = 0.997
==== e(   4) =    -5.67697 eV ==== 
     psi = 0.485*[#   4]+0.485*[#   8]+0.013*[#   3]+0.013*[#   7]
    |psi|^2 = 0.997
==== e(   5) =     1.05903 eV ==== 
     psi = 0.007*[#   3]+0.007*[#   7]+0.002*[#   1]+0.002*[#   5]
    |psi|^2 = 0.017
==== e(   6) =     1.80395 eV ==== 
     psi = 0.009*[#   2]+0.009*[#   6]
    |psi|^2 = 0.018
==== e(   7) =     2.00701 eV ==== 
 
    |psi|^2 = 0.001
==== e(   8) =     2.96716 eV ==== 
     psi = 0.006*[#   2]+0.006*[#   6]
    |psi|^2 = 0.012
==== e(   9) =     3.43660 eV ==== 
 
    |psi|^2 = 0.003
==== e(  10) =     5.10868 eV ==== 
     psi = 0.004*[#   2]+0.004*[#   6]
    |psi|^2 = 0.009
==== e(  11) =     5.74400 eV ==== 
     psi = 0.010*[#   3]+0.010*[#   7]+0.003*[#   1]+0.003*[#   5]
    |psi|^2 = 0.026
==== e(  12) =     6.05811 eV ==== 
     psi = 0.422*[#   3]+0.422*[#   7]+0.020*[#   1]+0.020*[#   5]+0.012*[#   4]
          +0.012*[#   8]
    |psi|^2 = 0.907
==== e(  13) =     6.45998 eV ==== 
     psi = 0.460*[#   4]+0.460*[#   8]+0.010*[#   3]+0.010*[#   7]+0.004*[#   1]
          +0.004*[#   5]
    |psi|^2 = 0.948
==== e(  14) =     8.08211 eV ==== 
     psi = 0.003*[#   2]+0.003*[#   6]
    |psi|^2 = 0.005
==== e(  15) =     8.62578 eV ==== 
     psi = 0.495*[#   2]+0.495*[#   6]
    |psi|^2 = 0.989
==== e(  16) =     8.87682 eV ==== 
     psi = 0.001*[#   3]+0.001*[#   7]
    |psi|^2 = 0.004
==== e(  17) =    10.34475 eV ==== 
     psi = 0.472*[#   1]+0.472*[#   5]+0.014*[#   3]+0.014*[#   7]+0.002*[#   4]
          +0.002*[#   8]
    |psi|^2 = 0.976
==== e(  18) =    11.81122 eV ==== 
     psi = 0.001*[#   2]+0.001*[#   6]
    |psi|^2 = 0.003
==== e(  19) =    12.82857 eV ==== 
 
    |psi|^2 = 0.001
==== e(  20) =    16.28401 eV ==== 
 
    |psi|^2 = 0.002
==== e(  21) =    17.57974 eV ==== 
 
    |psi|^2 = 0.001
==== e(  22) =    20.50676 eV ==== 
     psi = 0.001*[#   3]+0.001*[#   7]+0.001*[#   1]+0.001*[#   5]
    |psi|^2 = 0.005
==== e(  23) =    21.34477 eV ==== 
 
    |psi|^2 = 0.001
==== e(  24) =    23.10098 eV ==== 
 
    |psi|^2 = 0.000
==== e(  25) =    24.35479 eV ==== 
 
    |psi|^2 = 0.000
==== e(  26) =    25.05356 eV ==== 
     psi = 0.003*[#   2]+0.003*[#   6]
    |psi|^2 = 0.006
==== e(  27) =    26.61206 eV ==== 
 
    |psi|^2 = 0.000
==== e(  28) =    28.86889 eV ==== 
 
    |psi|^2 = 0.000
==== e(  29) =    29.38190 eV ==== 
 
    |psi|^2 = 0.000
==== e(  30) =    29.47078 eV ==== 
     psi = 0.002*[#   1]+0.002*[#   5]
    |psi|^2 = 0.005
==== e(  31) =    29.83635 eV ==== 
 
    |psi|^2 = 0.001
==== e(  32) =    30.57991 eV ==== 
 
    |psi|^2 = 0.001
==== e(  33) =    30.77198 eV ==== 
 
    |psi|^2 = 0.000
==== e(  34) =    30.79595 eV ==== 
 
    |psi|^2 = 0.000
==== e(  35) =    30.82235 eV ==== 
 
    |psi|^2 = 0.000
==== e(  36) =    30.96669 eV ==== 
 
    |psi|^2 = 0.000

 k =   0.0666666667  0.0000000000  0.0000000000
==== e(   1) =   -21.79287 eV ==== 
     psi = 0.478*[#   1]+0.478*[#   5]+0.014*[#   3]+0.014*[#   7]
    |psi|^2 = 0.984
==== e(   2) =    -9.87368 eV ==== 
     psi = 0.474*[#   2]+0.474*[#   6]
    |psi|^2 = 0.948
==== e(   3) =    -5.72645 eV ==== 
     psi = 0.482*[#   3]+0.482*[#   7]+0.008*[#   4]+0.008*[#   8]+0.008*[#   1]
          +0.008*[#   5]
    |psi|^2 = 0.997
==== e(   4) =    -5.58182 eV ==== 
     psi = 0.490*[#   4]+0.490*[#   8]+0.008*[#   3]+0.008*[#   7]
    |psi|^2 = 0.997
==== e(   5) =     0.99889 eV ==== 
     psi = 0.005*[#   3]+0.005*[#   7]+0.002*[#   1]+0.002*[#   5]
    |psi|^2 = 0.014
==== e(   6) =     1.74298 eV ==== 
     psi = 0.009*[#   2]+0.009*[#   6]
    |psi|^2 = 0.019
==== e(   7) =     1.94545 eV ==== 
 
    |psi|^2 = 0.001
==== e(   8) =     2.90621 eV ==== 
     psi = 0.006*[#   2]+0.006*[#   6]
    |psi|^2 = 0.012
==== e(   9) =     3.37568 eV ==== 
 
    |psi|^2 = 0.002
==== e(  10) =     5.04826 eV ==== 
     psi = 0.005*[#   2]+0.005*[#   6]
    |psi|^2 = 0.009
==== e(  11) =     5.68801 eV ==== 
     psi = 0.006*[#   3]+0.006*[#   7]+0.002*[#   1]+0.002*[#   5]
    |psi|^2 = 0.015
==== e(  12) =     6.02272 eV ==== 
     psi = 0.441*[#   3]+0.441*[#   7]+0.014*[#   1]+0.014*[#   5]+0.008*[#   4]
          +0.008*[#   8]
    |psi|^2 = 0.924
==== e(  13) =     6.29067 eV ==== 
     psi = 0.466*[#   4]+0.466*[#   8]+0.007*[#   3]+0.007*[#   7]+0.002*[#   1]
          +0.002*[#   5]
    |psi|^2 = 0.949
==== e(  14) =     8.02278 eV ==== 
     psi = 0.003*[#   2]+0.003*[#   6]
    |psi|^2 = 0.005
==== e(  15) =     8.77562 eV ==== 
     psi = 0.496*[#   2]+0.496*[#   6]
    |psi|^2 = 0.991
==== e(  16) =     8.81576 eV ==== 
 
    |psi|^2 = 0.003
==== e(  17) =    10.26012 eV ==== 
     psi = 0.479*[#   1]+0.479*[#   5]+0.009*[#   3]+0.009*[#   7]
    |psi|^2 = 0.977
==== e(  18) =    11.75399 eV ==== 
     psi = 0.001*[#   2]+0.001*[#   6]
    |psi|^2 = 0.003
==== e(  19) =    12.76819 eV ==== 
 
    |psi|^2 = 0.001
==== e(  20) =    16.23251 eV ==== 
 
    |psi|^2 = 0.002
==== e(  21) =    17.52012 eV ==== 
 
    |psi|^2 = 0.001
==== e(  22) =    20.37114 eV ==== 
 
    |psi|^2 = 0.003
==== e(  23) =    21.32928 eV ==== 
 
    |psi|^2 = 0.001
==== e(  24) =    23.04169 eV ==== 
 
    |psi|^2 = 0.000
==== e(  25) =    24.83437 eV ==== 
 
    |psi|^2 = 0.000
==== e(  26) =    25.28145 eV ==== 
     psi = 0.002*[#   2]+0.002*[#   6]
    |psi|^2 = 0.004
==== e(  27) =    26.57503 eV ==== 
 
    |psi|^2 = 0.000
==== e(  28) =    28.90227 eV ==== 
 
    |psi|^2 = 0.000
==== e(  29) =    29.32575 eV ==== 
 
    |psi|^2 = 0.000
==== e(  30) =    30.16153 eV ==== 
 
    |psi|^2 = 0.000
==== e(  31) =    30.19092 eV ==== 
     psi = 0.002*[#   1]+0.002*[#   5]
    |psi|^2 = 0.004
==== e(  32) =    30.52891 eV ==== 
 
    |psi|^2 = 0.002
==== e(  33) =    31.50077 eV ==== 
 
    |psi|^2 = 0.000
==== e(  34) =    31.55476 eV ==== 
 
    |psi|^2 = 0.000
==== e(  35) =    31.57508 eV ==== 
 
    |psi|^2 = 0.000
==== e(  36) =    31.69824 eV ==== 
 
    |psi|^2 = 0.000

 k =   0.0500000000  0.0000000000  0.0000000000
==== e(   1) =   -21.82726 eV ==== 
     psi = 0.484*[#   1]+0.484*[#   5]+0.008*[#   3]+0.008*[#   7]
    |psi|^2 = 0.984
==== e(   2) =    -9.91480 eV ==== 
     psi = 0.474*[#   2]+0.474*[#   6]
    |psi|^2 = 0.947
==== e(   3) =    -5.59075 eV ==== 
     psi = 0.489*[#   3]+0.489*[#   7]+0.005*[#   4]+0.005*[#   8]+0.005*[#   1]
          +0.005*[#   5]
    |psi|^2 = 0.997
==== e(   4) =    -5.50695 eV ==== 
     psi = 0.494*[#   4]+0.494*[#   8]+0.005*[#   3]+0.005*[#   7]
    |psi|^2 = 0.997
==== e(   5) =     0.95212 eV ==== 
     psi = 0.003*[#   3]+0.003*[#   7]+0.003*[#   1]+0.003*[#   5]
    |psi|^2 = 0.011
==== e(   6) =     1.69556 eV ==== 
     psi = 0.009*[#   2]+0.009*[#   6]
    |psi|^2 = 0.019
==== e(   7) =     1.89757 eV ==== 
 
    |psi|^2 = 0.001
==== e(   8) =     2.85880 eV ==== 
     psi = 0.006*[#   2]+0.006*[#   6]
    |psi|^2 = 0.013
==== e(   9) =     3.32830 eV ==== 
 
    |psi|^2 = 0.002
==== e(  10) =     5.00125 eV ==== 
     psi = 0.005*[#   2]+0.005*[#   6]
    |psi|^2 = 0.009
==== e(  11) =     5.64417 eV ==== 
     psi = 0.003*[#   3]+0.003*[#   7]+0.001*[#   1]+0.001*[#   5]
    |psi|^2 = 0.009
==== e(  12) =     5.99609 eV ==== 
     psi = 0.455*[#   3]+0.455*[#   7]+0.008*[#   1]+0.008*[#   5]+0.005*[#   4]
          +0.005*[#   8]
    |psi|^2 = 0.936
==== e(  13) =     6.15168 eV ==== 
     psi = 0.470*[#   4]+0.470*[#   8]+0.004*[#   3]+0.004*[#   7]
    |psi|^2 = 0.950
==== e(  14) =     7.97659 eV ==== 
     psi = 0.003*[#   2]+0.003*[#   6]
    |psi|^2 = 0.006
==== e(  15) =     8.76821 eV ==== 
 
    |psi|^2 = 0.002
==== e(  16) =     8.89399 eV ==== 
     psi = 0.497*[#   2]+0.497*[#   6]
    |psi|^2 = 0.993
==== e(  17) =    10.19655 eV ==== 
     psi = 0.484*[#   1]+0.484*[#   5]+0.005*[#   3]+0.005*[#   7]
    |psi|^2 = 0.978
==== e(  18) =    11.70938 eV ==== 
     psi = 0.001*[#   2]+0.001*[#   6]
    |psi|^2 = 0.003
==== e(  19) =    12.72117 eV ==== 
 
    |psi|^2 = 0.001
==== e(  20) =    16.19204 eV ==== 
 
    |psi|^2 = 0.002
==== e(  21) =    17.47362 eV ==== 
 
    |psi|^2 = 0.001
==== e(  22) =    20.26228 eV ==== 
 
    |psi|^2 = 0.002
==== e(  23) =    21.31115 eV ==== 
 
    |psi|^2 = 0.001
==== e(  24) =    22.99573 eV ==== 
 
    |psi|^2 = 0.000
==== e(  25) =    25.26186 eV ==== 
 
    |psi|^2 = 0.000
==== e(  26) =    25.49370 eV ==== 
     psi = 0.001*[#   2]+0.001*[#   6]
    |psi|^2 = 0.002
==== e(  27) =    26.56665 eV ==== 
 
    |psi|^2 = 0.000
==== e(  28) =    28.95841 eV ==== 
 
    |psi|^2 = 0.000
==== e(  29) =    29.28143 eV ==== 
 
    |psi|^2 = 0.000
==== e(  30) =    29.79090 eV ==== 
 
    |psi|^2 = 0.000
==== e(  31) =    30.91865 eV ==== 
     psi = 0.001*[#   1]+0.001*[#   5]
    |psi|^2 = 0.004
==== e(  32) =    31.22128 eV ==== 
 
    |psi|^2 = 0.002
==== e(  33) =    31.67346 eV ==== 
 
    |psi|^2 = 0.000
==== e(  34) =    32.23755 eV ==== 
 
    |psi|^2 = 0.000
==== e(  35) =    32.32651 eV ==== 
 
    |psi|^2 = 0.000
==== e(  36) =    32.33760 eV ==== 
 
    |psi|^2 = 0.000

 k =   0.0333333333  0.0000000000  0.0000000000
==== e(   1) =   -21.85184 eV ==== 
     psi = 0.488*[#   1]+0.488*[#   5]+0.004*[#   3]+0.004*[#   7]
    |psi|^2 = 0.984
==== e(   2) =    -9.94421 eV ==== 
     psi = 0.473*[#   2]+0.473*[#   6]
    |psi|^2 = 0.947
==== e(   3) =    -5.49107 eV ==== 
     psi = 0.494*[#   3]+0.494*[#   7]+0.002*[#   1]+0.002*[#   4]+0.002*[#   5]
          +0.002*[#   8]
    |psi|^2 = 0.997
==== e(   4) =    -5.45300 eV ==== 
     psi = 0.496*[#   4]+0.496*[#   8]+0.002*[#   3]+0.002*[#   7]
    |psi|^2 = 0.997
==== e(   5) =     0.91872 eV ==== 
     psi = 0.003*[#   1]+0.003*[#   5]+0.001*[#   3]+0.001*[#   7]
    |psi|^2 = 0.009
==== e(   6) =     1.66168 eV ==== 
     psi = 0.010*[#   2]+0.010*[#   6]
    |psi|^2 = 0.019
==== e(   7) =     1.86338 eV ==== 
 
    |psi|^2 = 0.001
==== e(   8) =     2.82493 eV ==== 
     psi = 0.006*[#   2]+0.006*[#   6]
    |psi|^2 = 0.013
==== e(   9) =     3.29446 eV ==== 
 
    |psi|^2 = 0.002
==== e(  10) =     4.96767 eV ==== 
     psi = 0.005*[#   2]+0.005*[#   6]
    |psi|^2 = 0.009
==== e(  11) =     5.61271 eV ==== 
     psi = 0.001*[#   1]+0.001*[#   3]+0.001*[#   5]+0.001*[#   7]
    |psi|^2 = 0.005
==== e(  12) =     5.97755 eV ==== 
     psi = 0.466*[#   3]+0.466*[#   7]+0.004*[#   1]+0.004*[#   5]+0.002*[#   4]
          +0.002*[#   8]
    |psi|^2 = 0.944
==== e(  13) =     6.04828 eV ==== 
     psi = 0.473*[#   4]+0.473*[#   8]+0.002*[#   3]+0.002*[#   7]
    |psi|^2 = 0.950
==== e(  14) =     7.94359 eV ==== 
     psi = 0.003*[#   2]+0.003*[#   6]
    |psi|^2 = 0.006
==== e(  15) =     8.73422 eV ==== 
 
    |psi|^2 = 0.002
==== e(  16) =     8.97953 eV ==== 
     psi = 0.497*[#   2]+0.497*[#   6]
    |psi|^2 = 0.994
==== e(  17) =    10.15234 eV ==== 
     psi = 0.487*[#   1]+0.487*[#   5]+0.002*[#   3]+0.002*[#   7]
    |psi|^2 = 0.978
==== e(  18) =    11.67747 eV ==== 
     psi = 0.002*[#   2]+0.002*[#   6]
    |psi|^2 = 0.003
==== e(  19) =    12.68756 eV ==== 
 
    |psi|^2 = 0.001
==== e(  20) =    16.16292 eV ==== 
 
    |psi|^2 = 0.002
==== e(  21) =    17.44033 eV ==== 
 
    |psi|^2 = 0.001
==== e(  22) =    20.18275 eV ==== 
 
    |psi|^2 = 0.002
==== e(  23) =    21.29561 eV ==== 
 
    |psi|^2 = 0.001
==== e(  24) =    22.96298 eV ==== 
 
    |psi|^2 = 0.000
==== e(  25) =    25.58977 eV ==== 
 
    |psi|^2 = 0.000
==== e(  26) =    25.67334 eV ==== 
 
    |psi|^2 = 0.001
==== e(  27) =    26.59338 eV ==== 
 
    |psi|^2 = 0.000
==== e(  28) =    29.05004 eV ==== 
 
    |psi|^2 = 0.000
==== e(  29) =    29.24970 eV ==== 
 
    |psi|^2 = 0.000
==== e(  30) =    29.49366 eV ==== 
 
    |psi|^2 = 0.000
==== e(  31) =    31.14836 eV ==== 
 
    |psi|^2 = 0.000
==== e(  32) =    31.64769 eV ==== 
 
    |psi|^2 = 0.003
==== e(  33) =    31.89592 eV ==== 
 
    |psi|^2 = 0.002
==== e(  34) =    32.97125 eV ==== 
 
    |psi|^2 = 0.000
==== e(  35) =    33.08755 eV ==== 
 
    |psi|^2 = 0.000
==== e(  36) =    33.10884 eV ==== 
 
    |psi|^2 = 0.000

 k =   0.0166666667  0.0000000000  0.0000000000
==== e(   1) =   -21.86658 eV ==== 
     psi = 0.491*[#   1]+0.491*[#   5]
    |psi|^2 = 0.984
==== e(   2) =    -9.96185 eV ==== 
     psi = 0.473*[#   2]+0.473*[#   6]
    |psi|^2 = 0.946
==== e(   3) =    -5.43009 eV ==== 
     psi = 0.498*[#   3]+0.498*[#   7]
    |psi|^2 = 0.997
==== e(   4) =    -5.42045 eV ==== 
     psi = 0.498*[#   4]+0.498*[#   8]
    |psi|^2 = 0.997
==== e(   5) =     0.89868 eV ==== 
     psi = 0.003*[#   1]+0.003*[#   5]
    |psi|^2 = 0.007
==== e(   6) =     1.64135 eV ==== 
     psi = 0.010*[#   2]+0.010*[#   6]
    |psi|^2 = 0.019
==== e(   7) =     1.84286 eV ==== 
 
    |psi|^2 = 0.001
==== e(   8) =     2.80461 eV ==== 
     psi = 0.006*[#   2]+0.006*[#   6]
    |psi|^2 = 0.013
==== e(   9) =     3.27416 eV ==== 
 
    |psi|^2 = 0.002
==== e(  10) =     4.94752 eV ==== 
     psi = 0.005*[#   2]+0.005*[#   6]
    |psi|^2 = 0.010
==== e(  11) =     5.59378 eV ==== 
 
    |psi|^2 = 0.003
==== e(  12) =     5.96662 eV ==== 
     psi = 0.473*[#   3]+0.473*[#   7]
    |psi|^2 = 0.949
==== e(  13) =     5.98454 eV ==== 
     psi = 0.475*[#   4]+0.475*[#   8]
    |psi|^2 = 0.950
==== e(  14) =     7.92377 eV ==== 
     psi = 0.003*[#   2]+0.003*[#   6]
    |psi|^2 = 0.006
==== e(  15) =     8.71380 eV ==== 
 
    |psi|^2 = 0.002
==== e(  16) =     9.03127 eV ==== 
     psi = 0.498*[#   2]+0.498*[#   6]
    |psi|^2 = 0.995
==== e(  17) =    10.12629 eV ==== 
     psi = 0.489*[#   1]+0.489*[#   5]
    |psi|^2 = 0.979
==== e(  18) =    11.65831 eV ==== 
     psi = 0.002*[#   2]+0.002*[#   6]
    |psi|^2 = 0.003
==== e(  19) =    12.66738 eV ==== 
 
    |psi|^2 = 0.001
==== e(  20) =    16.14537 eV ==== 
 
    |psi|^2 = 0.002
==== e(  21) =    17.42033 eV ==== 
 
    |psi|^2 = 0.001
==== e(  22) =    20.13434 eV ==== 
 
    |psi|^2 = 0.001
==== e(  23) =    21.28539 eV ==== 
 
    |psi|^2 = 0.001
==== e(  24) =    22.94335 eV ==== 
 
    |psi|^2 = 0.000
==== e(  25) =    25.78203 eV ==== 
 
    |psi|^2 = 0.000
==== e(  26) =    25.79711 eV ==== 
 
    |psi|^2 = 0.000
==== e(  27) =    26.64314 eV ==== 
 
    |psi|^2 = 0.000
==== e(  28) =    29.16535 eV ==== 
 
    |psi|^2 = 0.000
==== e(  29) =    29.23066 eV ==== 
 
    |psi|^2 = 0.000
==== e(  30) =    29.29768 eV ==== 
 
    |psi|^2 = 0.000
==== e(  31) =    30.73721 eV ==== 
 
    |psi|^2 = 0.000
==== e(  32) =    32.35466 eV ==== 
 
    |psi|^2 = 0.002
==== e(  33) =    32.50232 eV ==== 
 
    |psi|^2 = 0.002
==== e(  34) =    33.36608 eV ==== 
     psi = 0.001*[#   3]+0.001*[#   7]
    |psi|^2 = 0.002
==== e(  35) =    33.45894 eV ==== 
     psi = 0.002*[#   4]+0.002*[#   8]
    |psi|^2 = 0.005
==== e(  36) =    33.65787 eV ==== 
 
    |psi|^2 = 0.001

 k =   0.0000000000  0.0000000000  0.0000000000
==== e(   1) =   -21.87150 eV ==== 
     psi = 0.492*[#   1]+0.492*[#   5]
    |psi|^2 = 0.984
==== e(   2) =    -9.96774 eV ==== 
     psi = 0.473*[#   2]+0.473*[#   6]
    |psi|^2 = 0.946
==== e(   3) =    -5.40956 eV ==== 
     psi = 0.462*[#   4]+0.462*[#   8]+0.037*[#   3]+0.037*[#   7]
    |psi|^2 = 0.997
==== e(   4) =    -5.40956 eV ==== 
     psi = 0.462*[#   3]+0.462*[#   7]+0.037*[#   4]+0.037*[#   8]
    |psi|^2 = 0.997
==== e(   5) =     0.89200 eV ==== 
     psi = 0.003*[#   1]+0.003*[#   5]
    |psi|^2 = 0.007
==== e(   6) =     1.63457 eV ==== 
     psi = 0.010*[#   2]+0.010*[#   6]
    |psi|^2 = 0.019
==== e(   7) =     1.83602 eV ==== 
 
    |psi|^2 = 0.001
==== e(   8) =     2.79783 eV ==== 
     psi = 0.006*[#   2]+0.006*[#   6]
    |psi|^2 = 0.013
==== e(   9) =     3.26740 eV ==== 
 
    |psi|^2 = 0.002
==== e(  10) =     4.94080 eV ==== 
     psi = 0.005*[#   2]+0.005*[#   6]
    |psi|^2 = 0.010
==== e(  11) =     5.58746 eV ==== 
 
    |psi|^2 = 0.002
==== e(  12) =     5.96300 eV ==== 
     psi = 0.475*[#   4]+0.475*[#   8]
    |psi|^2 = 0.951
==== e(  13) =     5.96300 eV ==== 
     psi = 0.475*[#   3]+0.475*[#   7]
    |psi|^2 = 0.951
==== e(  14) =     7.91717 eV ==== 
     psi = 0.003*[#   2]+0.003*[#   6]
    |psi|^2 = 0.006
==== e(  15) =     8.70700 eV ==== 
 
    |psi|^2 = 0.001
==== e(  16) =     9.04858 eV ==== 
     psi = 0.498*[#   2]+0.498*[#   6]
    |psi|^2 = 0.995
==== e(  17) =    10.11768 eV ==== 
     psi = 0.489*[#   1]+0.489*[#   5]
    |psi|^2 = 0.979
==== e(  18) =    11.65192 eV ==== 
     psi = 0.002*[#   2]+0.002*[#   6]
    |psi|^2 = 0.003
==== e(  19) =    12.66065 eV ==== 
 
    |psi|^2 = 0.001
==== e(  20) =    16.13951 eV ==== 
 
    |psi|^2 = 0.002
==== e(  21) =    17.41366 eV ==== 
 
    |psi|^2 = 0.001
==== e(  22) =    20.11809 eV ==== 
 
    |psi|^2 = 0.001
==== e(  23) =    21.28185 eV ==== 
 
    |psi|^2 = 0.001
==== e(  24) =    22.93682 eV ==== 
 
    |psi|^2 = 0.000
==== e(  25) =    25.84180 eV ==== 
 
    |psi|^2 = 0.000
==== e(  26) =    25.84180 eV ==== 
 
    |psi|^2 = 0.000
==== e(  27) =    26.66990 eV ==== 
 
    |psi|^2 = 0.000
==== e(  28) =    29.22431 eV ==== 
 
    |psi|^2 = 0.000
==== e(  29) =    29.22866 eV ==== 
 
    |psi|^2 = 0.000
==== e(  30) =    29.22866 eV ==== 
 
    |psi|^2 = 0.000
==== e(  31) =    30.56870 eV ==== 
 
    |psi|^2 = 0.000
==== e(  32) =    32.82420 eV ==== 
 
    |psi|^2 = 0.000
==== e(  33) =    32.82420 eV ==== 
 
    |psi|^2 = 0.000
==== e(  34) =    33.32525 eV ==== 
     psi = 0.003*[#   4]+0.003*[#   8]
    |psi|^2 = 0.005
==== e(  35) =    33.32525 eV ==== 
     psi = 0.003*[#   3]+0.003*[#   7]
    |psi|^2 = 0.005
==== e(  36) =    33.81681 eV ==== 
     psi = 0.003*[#   1]+0.003*[#   5]
    |psi|^2 = 0.006

Lowdin Charges: 

     Atom #   1: total charge =   3.9516, s =  0.9116, 
     Atom #   1: total charge =   3.9516, p =  3.0400, pz=  0.9809, px=  1.0643, py=  0.9949, 
     Atom #   2: total charge =   3.9516, s =  0.9116, 
     Atom #   2: total charge =   3.9516, p =  3.0400, pz=  0.9809, px=  1.0643, py=  0.9949, 
     Spilling Parameter:   0.0121
 
     PROJWFC      :      3.06s CPU      8.96s WALL

 
   This run was terminated on:  12:51:22  25Jun2022            

=------------------------------------------------------------------------------=
   JOB DONE.
=------------------------------------------------------------------------------=
