
     Program PHONON v.7.0 starts on 25Jun2022 at 13:35:59 

     This program is part of the open-source Quantum ESPRESSO suite
     for quantum simulation of materials; please cite
         "P. Giannozzi et al., J. Phys.:Condens. Matter 21 395502 (2009);
         "P. Giannozzi et al., J. Phys.:Condens. Matter 29 465901 (2017);
         "P. Giannozzi et al., J. Chem. Phys. 152 154105 (2020);
          URL http://www.quantum-espresso.org", 
     in publications or presentations arising from this work. More details at
     http://www.quantum-espresso.org/quote

     Parallel version (MPI & OpenMP), running on      28 processor cores
     Number of MPI processes:                28
     Threads/MPI process:                     1

     MPI processes distributed on     1 nodes
     K-points division:     npool     =      14
     R & G space division:  proc/nbgrp/npool/nimage =       2
     55393 MiB available memory on the printing compute node when the environment starts
 
     Waiting for input...
     Reading input from standard input

     Reading xml data from directory:

     ./graphene.save/
     file C.pbe-n-kjpaw_psl.1.0.0.UPF: wavefunction(s)  2S 2P renormalized

     IMPORTANT: XC functional enforced from input :
     Exchange-correlation= PBE
                           (   1   4   3   4   0   0   0)
     Any further DFT definition will be discarded
     Please, verify this is what you really want

 
     Parallelization info
     --------------------
     sticks:   dense  smooth     PW     G-vecs:    dense   smooth      PW
     Min         360     237     75                63148    34335    5761
     Max         361     238     76                63163    34358    5776
     Sum         721     475    151               126311    68693   11537
 
     Using Slab Decomposition
 

     negative rho (up, down):  1.103E-04 0.000E+00
     Reading collected, re-writing distributed wavefunctions


     Dynamical matrices for (12,12, 1)  uniform grid of q-points
     (  19 q-points):
       N         xq(1)         xq(2)         xq(3) 
       1   0.000000000   0.000000000   0.000000000
       2   0.000000000   0.096225045   0.000000000
       3   0.000000000   0.192450090   0.000000000
       4   0.000000000   0.288675135   0.000000000
       5   0.000000000   0.384900179   0.000000000
       6   0.000000000   0.481125224   0.000000000
       7   0.000000000  -0.577350269   0.000000000
       8   0.083333333   0.144337567   0.000000000
       9   0.083333333   0.240562612   0.000000000
      10   0.083333333   0.336787657   0.000000000
      11   0.083333333   0.433012702   0.000000000
      12   0.083333333   0.529237747   0.000000000
      13   0.166666667   0.288675135   0.000000000
      14   0.166666667   0.384900179   0.000000000
      15   0.166666667   0.481125224   0.000000000
      16   0.166666667   0.577350269   0.000000000
      17   0.250000000   0.433012702   0.000000000
      18   0.250000000   0.529237747   0.000000000
      19   0.333333333   0.577350269   0.000000000

     Saving dvscf to file. Distribute only q points, not irreducible represetations.

     Calculation of q =    0.0000000   0.0000000   0.0000000

     Phonons                                                                    

     bravais-lattice index     =            4
     lattice parameter (alat)  =       4.6623  a.u.
     unit-cell volume          =     711.4836 (a.u.)^3
     number of atoms/cell      =            2
     number of atomic types    =            1
     kinetic-energy cut-off    =      80.0000  Ry
     charge density cut-off    =     480.0000  Ry
     convergence threshold     =      1.0E-16
     beta                      =       0.7000
     number of iterations used =            4
     Exchange-correlation= PBE
                           (   1   4   3   4   0   0   0)


     celldm(1)=    4.66233  celldm(2)=    0.00000  celldm(3)=    8.10636
     celldm(4)=    0.00000  celldm(5)=    0.00000  celldm(6)=    0.00000

     crystal axes: (cart. coord. in units of alat)
               a(1) = (  1.0000  0.0000  0.0000 )  
               a(2) = ( -0.5000  0.8660  0.0000 )  
               a(3) = (  0.0000  0.0000  8.1064 )  

     reciprocal axes: (cart. coord. in units 2 pi/alat)
               b(1) = (  1.0000  0.5774  0.0000 )  
               b(2) = (  0.0000  1.1547  0.0000 )  
               b(3) = (  0.0000  0.0000  0.1234 )  


     Atoms inside the unit cell: 

     Cartesian axes

     site n.  atom      mass           positions (alat units)
        1     C   12.0107   tau(    1) = (   -0.00000    0.57735    4.05318  )
        2     C   12.0107   tau(    2) = (    0.50000    0.28868    4.05318  )

     Computing dynamical matrix for 
                    q = (   0.0000000   0.0000000   0.0000000 )
 
     25 Sym.Ops. (with q -> -q+G )


     G cutoff =  264.2938  (  63163 G-vectors)     FFT grid: ( 36, 36,270)
     G cutoff =  176.1958  (  34335 G-vectors)  smooth grid: ( 27, 27,216)

     number of k points=   127  Methfessel-Paxton smearing, width (Ry)=  0.0100

     PseudoPot. # 1 for C  read from file:
     ./pseudo/C.pbe-n-kjpaw_psl.1.0.0.UPF
     MD5 check sum: 6fec8efd722f5d988670a8dc528584a2
     Pseudo is Projector augmented-wave + core cor, Zval =  4.0
     Generated using "atomic" code by A. Dal Corso  v.5.1.2
     Shape of augmentation charge: PSQ
     Using radial grid of 1073 points,  4 beta functions with: 
                l(1) =   0
                l(2) =   0
                l(3) =   1
                l(4) =   1
     Q(r) pseudized with 0 coefficients 


     Mode symmetry, D_6h(6/mmm) point group:


     Atomic displacements:
     There are    4 irreducible representations

     Representation     1      1 modes -  To be done

     Representation     2      2 modes -  To be done

     Representation     3      1 modes -  To be done

     Representation     4      2 modes -  To be done



     Alpha used in Ewald sum =   2.8000

     negative rho (up, down):  1.103E-04 0.000E+00
     PHONON       :     17.59s CPU     28.14s WALL



     Representation #   1 mode #   1

     Self-consistent Calculation
 
     Pert. #  1: Fermi energy shift (Ry) =    -1.3786E-25     0.0000E+00

      iter #   1 total cpu time :    35.3 secs   av.it.:   4.3
      thresh= 1.000E-02 alpha_mix =  0.700 |ddv_scf|^2 =  1.493E-07
 
     Pert. #  1: Fermi energy shift (Ry) =     6.8932E-26     0.0000E+00

      iter #   2 total cpu time :    45.7 secs   av.it.:   8.1
      thresh= 3.864E-05 alpha_mix =  0.700 |ddv_scf|^2 =  1.357E-08
 
     Pert. #  1: Fermi energy shift (Ry) =     6.8932E-26     0.0000E+00

      iter #   3 total cpu time :    54.6 secs   av.it.:   7.8
      thresh= 1.165E-05 alpha_mix =  0.700 |ddv_scf|^2 =  5.630E-12
 
     Pert. #  1: Fermi energy shift (Ry) =     6.8932E-26     0.0000E+00

      iter #   4 total cpu time :    67.4 secs   av.it.:   9.5
      thresh= 2.373E-07 alpha_mix =  0.700 |ddv_scf|^2 =  2.129E-13
 
     Pert. #  1: Fermi energy shift (Ry) =    -6.8932E-26     0.0000E+00

      iter #   5 total cpu time :    73.4 secs   av.it.:   8.3
      thresh= 4.614E-08 alpha_mix =  0.700 |ddv_scf|^2 =  7.925E-17

     End of self-consistent calculation

     Convergence has been achieved 


     Representation #   2 modes #   2   3

     Self-consistent Calculation
 
     Pert. #  1: Fermi energy shift (Ry) =     1.4456E-19    -9.5662E-42
     Pert. #  2: Fermi energy shift (Ry) =    -5.4210E-19     1.9132E-41

      iter #   1 total cpu time :    91.0 secs   av.it.:   5.6
      thresh= 1.000E-02 alpha_mix =  0.700 |ddv_scf|^2 =  2.389E-08
 
     Pert. #  1: Fermi energy shift (Ry) =    -2.2588E-21    -1.1479E-41
     Pert. #  2: Fermi energy shift (Ry) =     5.6469E-21     2.6785E-41

      iter #   2 total cpu time :   115.9 secs   av.it.:  11.1
      thresh= 1.546E-05 alpha_mix =  0.700 |ddv_scf|^2 =  1.529E-09
 
     Pert. #  1: Fermi energy shift (Ry) =     1.4117E-21    -1.1479E-41
     Pert. #  2: Fermi energy shift (Ry) =     3.3881E-21     2.6785E-41

      iter #   3 total cpu time :   135.0 secs   av.it.:   9.8
      thresh= 3.910E-06 alpha_mix =  0.700 |ddv_scf|^2 =  2.504E-11
 
     Pert. #  1: Fermi energy shift (Ry) =    -2.8234E-22    -1.1479E-41
     Pert. #  2: Fermi energy shift (Ry) =     4.2352E-21     2.6785E-41

      iter #   4 total cpu time :   151.9 secs   av.it.:  10.2
      thresh= 5.004E-07 alpha_mix =  0.700 |ddv_scf|^2 =  7.889E-14
 
     Pert. #  1: Fermi energy shift (Ry) =     2.2588E-21    -1.1479E-41
     Pert. #  2: Fermi energy shift (Ry) =     2.1176E-21     2.6785E-41

      iter #   5 total cpu time :   163.8 secs   av.it.:   9.4
      thresh= 2.809E-08 alpha_mix =  0.700 |ddv_scf|^2 =  1.715E-17

     End of self-consistent calculation

     Convergence has been achieved 


     Representation #   3 mode #   4

     Self-consistent Calculation
 
     Pert. #  1: Fermi energy shift (Ry) =     0.0000E+00     0.0000E+00

      iter #   1 total cpu time :   180.3 secs   av.it.:   6.3
      thresh= 1.000E-02 alpha_mix =  0.700 |ddv_scf|^2 =  2.528E-05
 
     Pert. #  1: Fermi energy shift (Ry) =    -1.3786E-25     0.0000E+00

      iter #   2 total cpu time :   189.9 secs   av.it.:   9.6
      thresh= 5.028E-04 alpha_mix =  0.700 |ddv_scf|^2 =  2.960E-05
 
     Pert. #  1: Fermi energy shift (Ry) =     1.7233E-26     0.0000E+00

      iter #   3 total cpu time :   200.0 secs   av.it.:   8.7
      thresh= 5.441E-04 alpha_mix =  0.700 |ddv_scf|^2 =  2.041E-08
 
     Pert. #  1: Fermi energy shift (Ry) =     1.7233E-26     0.0000E+00

      iter #   4 total cpu time :   208.3 secs   av.it.:   8.7
      thresh= 1.428E-05 alpha_mix =  0.700 |ddv_scf|^2 =  7.419E-11
 
     Pert. #  1: Fermi energy shift (Ry) =    -1.7233E-26     0.0000E+00

      iter #   5 total cpu time :   218.3 secs   av.it.:   8.3
      thresh= 8.613E-07 alpha_mix =  0.700 |ddv_scf|^2 =  5.612E-12
 
     Pert. #  1: Fermi energy shift (Ry) =     1.7233E-26     0.0000E+00

      iter #   6 total cpu time :   228.4 secs   av.it.:   8.6
      thresh= 2.369E-07 alpha_mix =  0.700 |ddv_scf|^2 =  1.435E-14
 
     Pert. #  1: Fermi energy shift (Ry) =    -1.7233E-26     0.0000E+00

      iter #   7 total cpu time :   234.8 secs   av.it.:   8.7
      thresh= 1.198E-08 alpha_mix =  0.700 |ddv_scf|^2 =  7.267E-17

     End of self-consistent calculation

     Convergence has been achieved 


     Representation #   4 modes #   5   6

     Self-consistent Calculation
 
     Pert. #  1: Fermi energy shift (Ry) =     0.0000E+00     0.0000E+00
     Pert. #  2: Fermi energy shift (Ry) =     2.4126E-25     0.0000E+00

      iter #   1 total cpu time :   251.0 secs   av.it.:   5.2
      thresh= 1.000E-02 alpha_mix =  0.700 |ddv_scf|^2 =  1.352E-08
 
     Pert. #  1: Fermi energy shift (Ry) =     6.8932E-26    -3.9183E-39
     Pert. #  2: Fermi energy shift (Ry) =     1.3786E-25    -2.3510E-38

      iter #   2 total cpu time :   268.5 secs   av.it.:  10.5
      thresh= 1.163E-05 alpha_mix =  0.700 |ddv_scf|^2 =  1.117E-09
 
     Pert. #  1: Fermi energy shift (Ry) =    -1.3786E-25    -1.9592E-39
     Pert. #  2: Fermi energy shift (Ry) =    -1.0340E-25    -1.1755E-38

      iter #   3 total cpu time :   288.7 secs   av.it.:  10.0
      thresh= 3.342E-06 alpha_mix =  0.700 |ddv_scf|^2 =  2.588E-12
 
     Pert. #  1: Fermi energy shift (Ry) =    -2.0680E-25     1.2245E-40
     Pert. #  2: Fermi energy shift (Ry) =     6.8932E-26     2.4489E-40

      iter #   4 total cpu time :   307.1 secs   av.it.:  10.6
      thresh= 1.609E-07 alpha_mix =  0.700 |ddv_scf|^2 =  6.654E-14
 
     Pert. #  1: Fermi energy shift (Ry) =     2.0680E-25     3.0612E-41
     Pert. #  2: Fermi energy shift (Ry) =     0.0000E+00     9.1835E-41

      iter #   5 total cpu time :   318.5 secs   av.it.:   9.9
      thresh= 2.580E-08 alpha_mix =  0.700 |ddv_scf|^2 =  4.058E-17

     End of self-consistent calculation

     Convergence has been achieved 
 
     Number of q in the star =    1
     List of q in the star:
          1   0.000000000   0.000000000   0.000000000

     Diagonalizing the dynamical matrix

     q = (    0.000000000   0.000000000   0.000000000 ) 

 **************************************************************************
     freq (    1) =       0.794201 [THz] =      26.491692 [cm-1]
     freq (    2) =       0.794201 [THz] =      26.491692 [cm-1]
     freq (    3) =       1.606888 [THz] =      53.599998 [cm-1]
     freq (    4) =      26.227510 [THz] =     874.855562 [cm-1]
     freq (    5) =      46.185539 [THz] =    1540.583744 [cm-1]
     freq (    6) =      46.185539 [THz] =    1540.583744 [cm-1]
 **************************************************************************

     Mode symmetry, D_6h(6/mmm) point group:

     freq (   1-   2) =         26.5  [cm-1]   --> E_1u            I  
     freq (   3-   3) =         53.6  [cm-1]   --> A_2u            I  
     freq (   4-   4) =        874.9  [cm-1]   --> B_1g               
     freq (   5-   6) =       1540.6  [cm-1]   --> E_2g            R  

     Calculation of q =    0.0000000   0.0962250   0.0000000

     Subspace diagonalization in iterative solution of the eigenvalue problem:
     a serial algorithm will be used

 
     Parallelization info
     --------------------
     sticks:   dense  smooth     PW     G-vecs:    dense   smooth      PW
     Min         360     237     75                63148    34335    5949
     Max         361     238     76                63163    34358    5972
     Sum         721     475    151               126311    68693   11921
 
     Using Slab Decomposition
 

     Title: 
     Phonons                                                                    


     bravais-lattice index     =            4
     lattice parameter (alat)  =       4.6623  a.u.
     unit-cell volume          =     711.4836 (a.u.)^3
     number of atoms/cell      =            2
     number of atomic types    =            1
     number of electrons       =         8.00
     number of Kohn-Sham states=            8
     kinetic-energy cutoff     =      80.0000  Ry
     charge density cutoff     =     480.0000  Ry
     Exchange-correlation= PBE
                           (   1   4   3   4   0   0   0)

     celldm(1)=   4.662327  celldm(2)=   0.000000  celldm(3)=   8.106365
     celldm(4)=   0.000000  celldm(5)=   0.000000  celldm(6)=   0.000000

     crystal axes: (cart. coord. in units of alat)
               a(1) = (   1.000000   0.000000   0.000000 )  
               a(2) = (  -0.500000   0.866025   0.000000 )  
               a(3) = (   0.000000   0.000000   8.106365 )  

     reciprocal axes: (cart. coord. in units 2 pi/alat)
               b(1) = (  1.000000  0.577350  0.000000 )  
               b(2) = (  0.000000  1.154701  0.000000 )  
               b(3) = (  0.000000  0.000000  0.123360 )  

Write cell and positions for Wanner90.x
begin unit_cell_cart
Bohr
        4.6623268   0.0000000   0.0000000
       -2.3311634   4.0376934   0.0000000
        0.0000000   0.0000000  37.7945225
end unit_cell_cart

begin atoms_cart
Bohr
        C          -0.0000000   2.6917956  18.8972612
        C           2.3311634   1.3458978  18.8972612
end atoms_cart

     PseudoPot. # 1 for C  read from file:
     ./pseudo/C.pbe-n-kjpaw_psl.1.0.0.UPF
     MD5 check sum: 6fec8efd722f5d988670a8dc528584a2
     Pseudo is Projector augmented-wave + core cor, Zval =  4.0
     Generated using "atomic" code by A. Dal Corso  v.5.1.2
     Shape of augmentation charge: PSQ
     Using radial grid of 1073 points,  4 beta functions with: 
                l(1) =   0
                l(2) =   0
                l(3) =   1
                l(4) =   1
     Q(r) pseudized with 0 coefficients 


     atomic species   valence    mass     pseudopotential
        C              4.00    12.01070     C ( 1.00)

     24 Sym. Ops., with inversion, found



   Cartesian axes

     site n.     atom                  positions (alat units)
         1           C   tau(   1) = (  -0.0000000   0.5773503   4.0531825  )
         2           C   tau(   2) = (   0.5000000   0.2886751   4.0531825  )

     number of k points=  1332  Methfessel-Paxton smearing, width (Ry)=  0.0100

     Number of k-points >= 100: set verbosity='high' to print them.

     Dense  grid:   126311 G-vectors     FFT dimensions: (  36,  36, 270)

     Smooth grid:    68693 G-vectors     FFT dimensions: (  27,  27, 216)

     Estimated max dynamical RAM per process >      28.81 MB

     Estimated total dynamical RAM >     806.62 MB

     The potential is recalculated from file :
     ./_ph0/graphene.q_2/graphene.save/charge-density


     negative rho (up, down):  1.103E-04 0.000E+00
     Starting wfcs are    8 atomic wfcs
     Checking if some PAW data can be deallocated... 

     Band Structure Calculation
     Davidson diagonalization with overlap

     ethr =  1.25E-10,  avg # of iterations = 28.0

     total cpu time spent up to now is      102.1 secs

     End of band structure calculation

     Number of k-points >= 100: set verbosity='high' to print the bands.

     the Fermi energy is    -2.3538 ev

     Writing config to output data dir ./_ph0/graphene.q_2/graphene.save/

     Phonons                                                                    

     bravais-lattice index     =            4
     lattice parameter (alat)  =       4.6623  a.u.
     unit-cell volume          =     711.4836 (a.u.)^3
     number of atoms/cell      =            2
     number of atomic types    =            1
     kinetic-energy cut-off    =      80.0000  Ry
     charge density cut-off    =     480.0000  Ry
     convergence threshold     =      1.0E-16
     beta                      =       0.7000
     number of iterations used =            4
     Exchange-correlation= PBE
                           (   1   4   3   4   0   0   0)


     celldm(1)=    4.66233  celldm(2)=    0.00000  celldm(3)=    8.10636
     celldm(4)=    0.00000  celldm(5)=    0.00000  celldm(6)=    0.00000

     crystal axes: (cart. coord. in units of alat)
               a(1) = (  1.0000  0.0000  0.0000 )  
               a(2) = ( -0.5000  0.8660  0.0000 )  
               a(3) = (  0.0000  0.0000  8.1064 )  

     reciprocal axes: (cart. coord. in units 2 pi/alat)
               b(1) = (  1.0000  0.5774  0.0000 )  
               b(2) = (  0.0000  1.1547  0.0000 )  
               b(3) = (  0.0000  0.0000  0.1234 )  


     Atoms inside the unit cell: 

     Cartesian axes

     site n.  atom      mass           positions (alat units)
        1     C   12.0107   tau(    1) = (   -0.00000    0.57735    4.05318  )
        2     C   12.0107   tau(    2) = (    0.50000    0.28868    4.05318  )

     Computing dynamical matrix for 
                    q = (   0.0000000   0.0962250   0.0000000 )
 
      4 Sym.Ops. (no q -> -q+G )


     G cutoff =  264.2938  (  63163 G-vectors)     FFT grid: ( 36, 36,270)
     G cutoff =  176.1958  (  34335 G-vectors)  smooth grid: ( 27, 27,216)

     number of k points=  1332  Methfessel-Paxton smearing, width (Ry)=  0.0100

     PseudoPot. # 1 for C  read from file:
     ./pseudo/C.pbe-n-kjpaw_psl.1.0.0.UPF
     MD5 check sum: 6fec8efd722f5d988670a8dc528584a2
     Pseudo is Projector augmented-wave + core cor, Zval =  4.0
     Generated using "atomic" code by A. Dal Corso  v.5.1.2
     Shape of augmentation charge: PSQ
     Using radial grid of 1073 points,  4 beta functions with: 
                l(1) =   0
                l(2) =   0
                l(3) =   1
                l(4) =   1
     Q(r) pseudized with 0 coefficients 


     Mode symmetry, C_2v (mm2)  point group:


     Atomic displacements:
     There are    6 irreducible representations

     Representation     1      1 modes -  To be done

     Representation     2      1 modes -  To be done

     Representation     3      1 modes -  To be done

     Representation     4      1 modes -  To be done

     Representation     5      1 modes -  To be done

     Representation     6      1 modes -  To be done



     Alpha used in Ewald sum =   2.8000

     negative rho (up, down):  1.103E-04 0.000E+00
     PHONON       :   4m44.50s CPU   7m44.37s WALL



     Representation #   1 mode #   1

     Self-consistent Calculation

      iter #   1 total cpu time :   476.8 secs   av.it.:   6.0
      thresh= 1.000E-02 alpha_mix =  0.700 |ddv_scf|^2 =  3.487E-05

      iter #   2 total cpu time :   495.5 secs   av.it.:   8.9
      thresh= 5.905E-04 alpha_mix =  0.700 |ddv_scf|^2 =  2.967E-04

      iter #   3 total cpu time :   520.5 secs   av.it.:   7.3
      thresh= 1.722E-03 alpha_mix =  0.700 |ddv_scf|^2 =  6.610E-09

      iter #   4 total cpu time :   541.6 secs   av.it.:  10.4
      thresh= 8.130E-06 alpha_mix =  0.700 |ddv_scf|^2 =  1.735E-09

      iter #   5 total cpu time :   571.4 secs   av.it.:  10.5
      thresh= 4.166E-06 alpha_mix =  0.700 |ddv_scf|^2 =  1.847E-10

      iter #   6 total cpu time :   593.9 secs   av.it.:  10.4
      thresh= 1.359E-06 alpha_mix =  0.700 |ddv_scf|^2 =  7.951E-12

      iter #   7 total cpu time :   623.9 secs   av.it.:   8.2
      thresh= 2.820E-07 alpha_mix =  0.700 |ddv_scf|^2 =  3.683E-12

      iter #   8 total cpu time :   649.2 secs   av.it.:   9.3
      thresh= 1.919E-07 alpha_mix =  0.700 |ddv_scf|^2 =  1.156E-11

      iter #   9 total cpu time :   673.7 secs   av.it.:   8.3
      thresh= 3.400E-07 alpha_mix =  0.700 |ddv_scf|^2 =  7.961E-15

      iter #  10 total cpu time :   690.1 secs   av.it.:   8.9
      thresh= 8.922E-09 alpha_mix =  0.700 |ddv_scf|^2 =  1.961E-16

      iter #  11 total cpu time :   705.4 secs   av.it.:  10.6
      thresh= 1.400E-09 alpha_mix =  0.700 |ddv_scf|^2 =  8.057E-17

     End of self-consistent calculation

     Convergence has been achieved 


     Representation #   2 mode #   2

     Self-consistent Calculation

      iter #   1 total cpu time :   723.6 secs   av.it.:   6.0
      thresh= 1.000E-02 alpha_mix =  0.700 |ddv_scf|^2 =  3.487E-05

      iter #   2 total cpu time :   740.2 secs   av.it.:   8.9
      thresh= 5.905E-04 alpha_mix =  0.700 |ddv_scf|^2 =  2.967E-04

      iter #   3 total cpu time :   762.3 secs   av.it.:   7.3
      thresh= 1.722E-03 alpha_mix =  0.700 |ddv_scf|^2 =  6.610E-09

      iter #   4 total cpu time :   784.3 secs   av.it.:  10.4
      thresh= 8.130E-06 alpha_mix =  0.700 |ddv_scf|^2 =  1.735E-09

      iter #   5 total cpu time :   805.2 secs   av.it.:  10.5
      thresh= 4.166E-06 alpha_mix =  0.700 |ddv_scf|^2 =  1.847E-10

      iter #   6 total cpu time :   826.3 secs   av.it.:  10.4
      thresh= 1.359E-06 alpha_mix =  0.700 |ddv_scf|^2 =  7.950E-12

      iter #   7 total cpu time :   850.4 secs   av.it.:   8.2
      thresh= 2.820E-07 alpha_mix =  0.700 |ddv_scf|^2 =  3.683E-12

      iter #   8 total cpu time :   875.6 secs   av.it.:   9.3
      thresh= 1.919E-07 alpha_mix =  0.700 |ddv_scf|^2 =  1.156E-11

      iter #   9 total cpu time :   900.0 secs   av.it.:   8.3
      thresh= 3.400E-07 alpha_mix =  0.700 |ddv_scf|^2 =  7.960E-15

      iter #  10 total cpu time :   918.6 secs   av.it.:   8.9
      thresh= 8.922E-09 alpha_mix =  0.700 |ddv_scf|^2 =  1.960E-16

      iter #  11 total cpu time :   935.2 secs   av.it.:  10.6
      thresh= 1.400E-09 alpha_mix =  0.700 |ddv_scf|^2 =  8.056E-17

     End of self-consistent calculation

     Convergence has been achieved 


     Representation #   3 mode #   3

     Self-consistent Calculation

      iter #   1 total cpu time :   956.5 secs   av.it.:   5.8
      thresh= 1.000E-02 alpha_mix =  0.700 |ddv_scf|^2 =  7.675E-08

      iter #   2 total cpu time :   980.4 secs   av.it.:  10.5
      thresh= 2.770E-05 alpha_mix =  0.700 |ddv_scf|^2 =  5.348E-09

      iter #   3 total cpu time :  1008.8 secs   av.it.:   9.4
      thresh= 7.313E-06 alpha_mix =  0.700 |ddv_scf|^2 =  6.139E-11

      iter #   4 total cpu time :  1026.9 secs   av.it.:   9.6
      thresh= 7.835E-07 alpha_mix =  0.700 |ddv_scf|^2 =  3.516E-13

      iter #   5 total cpu time :  1044.3 secs   av.it.:   9.6
      thresh= 5.929E-08 alpha_mix =  0.700 |ddv_scf|^2 =  2.430E-15

      iter #   6 total cpu time :  1057.7 secs   av.it.:  10.1
      thresh= 4.929E-09 alpha_mix =  0.700 |ddv_scf|^2 =  7.358E-18

     End of self-consistent calculation

     Convergence has been achieved 


     Representation #   4 mode #   4

     Self-consistent Calculation

      iter #   1 total cpu time :  1075.1 secs   av.it.:   5.8
      thresh= 1.000E-02 alpha_mix =  0.700 |ddv_scf|^2 =  7.675E-08

      iter #   2 total cpu time :  1094.5 secs   av.it.:  10.5
      thresh= 2.770E-05 alpha_mix =  0.700 |ddv_scf|^2 =  5.348E-09

      iter #   3 total cpu time :  1116.6 secs   av.it.:   9.4
      thresh= 7.313E-06 alpha_mix =  0.700 |ddv_scf|^2 =  6.139E-11

      iter #   4 total cpu time :  1135.2 secs   av.it.:   9.6
      thresh= 7.835E-07 alpha_mix =  0.700 |ddv_scf|^2 =  3.516E-13

      iter #   5 total cpu time :  1154.1 secs   av.it.:   9.6
      thresh= 5.929E-08 alpha_mix =  0.700 |ddv_scf|^2 =  2.430E-15

      iter #   6 total cpu time :  1167.8 secs   av.it.:  10.1
      thresh= 4.929E-09 alpha_mix =  0.700 |ddv_scf|^2 =  7.358E-18

     End of self-consistent calculation

     Convergence has been achieved 


     Representation #   5 mode #   5

     Self-consistent Calculation

      iter #   1 total cpu time :  1187.2 secs   av.it.:   6.1
      thresh= 1.000E-02 alpha_mix =  0.700 |ddv_scf|^2 =  4.957E-06

      iter #   2 total cpu time :  1205.8 secs   av.it.:  10.0
      thresh= 2.226E-04 alpha_mix =  0.700 |ddv_scf|^2 =  3.660E-06

      iter #   3 total cpu time :  1227.5 secs   av.it.:   9.2
      thresh= 1.913E-04 alpha_mix =  0.700 |ddv_scf|^2 =  5.933E-09

      iter #   4 total cpu time :  1243.3 secs   av.it.:   9.1
      thresh= 7.702E-06 alpha_mix =  0.700 |ddv_scf|^2 =  1.449E-11

      iter #   5 total cpu time :  1261.5 secs   av.it.:   9.6
      thresh= 3.806E-07 alpha_mix =  0.700 |ddv_scf|^2 =  4.520E-13

      iter #   6 total cpu time :  1278.2 secs   av.it.:   9.4
      thresh= 6.723E-08 alpha_mix =  0.700 |ddv_scf|^2 =  6.355E-16

      iter #   7 total cpu time :  1293.4 secs   av.it.:  10.2
      thresh= 2.521E-09 alpha_mix =  0.700 |ddv_scf|^2 =  9.644E-18

     End of self-consistent calculation

     Convergence has been achieved 


     Representation #   6 mode #   6

     Self-consistent Calculation

      iter #   1 total cpu time :  1311.1 secs   av.it.:   6.1
      thresh= 1.000E-02 alpha_mix =  0.700 |ddv_scf|^2 =  4.957E-06

      iter #   2 total cpu time :  1328.7 secs   av.it.:  10.0
      thresh= 2.226E-04 alpha_mix =  0.700 |ddv_scf|^2 =  3.660E-06

      iter #   3 total cpu time :  1347.8 secs   av.it.:   9.2
      thresh= 1.913E-04 alpha_mix =  0.700 |ddv_scf|^2 =  5.933E-09

      iter #   4 total cpu time :  1364.3 secs   av.it.:   9.1
      thresh= 7.702E-06 alpha_mix =  0.700 |ddv_scf|^2 =  1.449E-11

      iter #   5 total cpu time :  1381.1 secs   av.it.:   9.6
      thresh= 3.806E-07 alpha_mix =  0.700 |ddv_scf|^2 =  4.520E-13

      iter #   6 total cpu time :  1399.5 secs   av.it.:   9.4
      thresh= 6.723E-08 alpha_mix =  0.700 |ddv_scf|^2 =  6.355E-16

      iter #   7 total cpu time :  1413.2 secs   av.it.:  10.2
      thresh= 2.521E-09 alpha_mix =  0.700 |ddv_scf|^2 =  9.644E-18

     End of self-consistent calculation

     Convergence has been achieved 
 
     Number of q in the star =    6
     List of q in the star:
          1   0.000000000   0.096225045   0.000000000
          2   0.000000000  -0.096225045   0.000000000
          3  -0.083333333   0.048112522   0.000000000
          4  -0.083333333  -0.048112522   0.000000000
          5   0.083333333  -0.048112522   0.000000000
          6   0.083333333   0.048112522   0.000000000

     Diagonalizing the dynamical matrix

     q = (    0.000000000   0.096225045   0.000000000 ) 

 **************************************************************************
     freq (    1) =       1.708459 [THz] =      56.988060 [cm-1]
     freq (    2) =       5.354465 [THz] =     178.605741 [cm-1]
     freq (    3) =       8.411520 [THz] =     280.578106 [cm-1]
     freq (    4) =      26.072465 [THz] =     869.683826 [cm-1]
     freq (    5) =      46.250760 [THz] =    1542.759289 [cm-1]
     freq (    6) =      47.638301 [THz] =    1589.042683 [cm-1]
 **************************************************************************

     Mode symmetry, C_2v (mm2)  point group:

     freq (   1-   1) =         57.0  [cm-1]   --> B_2  D_4  S_4      
     freq (   2-   2) =        178.6  [cm-1]   --> B_1  D_3  S_3      
     freq (   3-   3) =        280.6  [cm-1]   --> A_1  D_1  S_1      
     freq (   4-   4) =        869.7  [cm-1]   --> B_2  D_4  S_4      
     freq (   5-   5) =       1542.8  [cm-1]   --> B_1  D_3  S_3      
     freq (   6-   6) =       1589.0  [cm-1]   --> A_1  D_1  S_1      

     Calculation of q =    0.0000000   0.1924501   0.0000000
 
     Parallelization info
     --------------------
     sticks:   dense  smooth     PW     G-vecs:    dense   smooth      PW
     Min         360     237     75                63148    34335    6127
     Max         361     238     76                63163    34358    6156
     Sum         721     475    151               126311    68693   12283
 
     Using Slab Decomposition
 

     Title: 
     Phonons                                                                    


     bravais-lattice index     =            4
     lattice parameter (alat)  =       4.6623  a.u.
     unit-cell volume          =     711.4836 (a.u.)^3
     number of atoms/cell      =            2
     number of atomic types    =            1
     number of electrons       =         8.00
     number of Kohn-Sham states=            8
     kinetic-energy cutoff     =      80.0000  Ry
     charge density cutoff     =     480.0000  Ry
     Exchange-correlation= PBE
                           (   1   4   3   4   0   0   0)

     celldm(1)=   4.662327  celldm(2)=   0.000000  celldm(3)=   8.106365
     celldm(4)=   0.000000  celldm(5)=   0.000000  celldm(6)=   0.000000

     crystal axes: (cart. coord. in units of alat)
               a(1) = (   1.000000   0.000000   0.000000 )  
               a(2) = (  -0.500000   0.866025   0.000000 )  
               a(3) = (   0.000000   0.000000   8.106365 )  

     reciprocal axes: (cart. coord. in units 2 pi/alat)
               b(1) = (  1.000000  0.577350  0.000000 )  
               b(2) = (  0.000000  1.154701  0.000000 )  
               b(3) = (  0.000000  0.000000  0.123360 )  

Write cell and positions for Wanner90.x
begin unit_cell_cart
Bohr
        4.6623268   0.0000000   0.0000000
       -2.3311634   4.0376934   0.0000000
        0.0000000   0.0000000  37.7945225
end unit_cell_cart

begin atoms_cart
Bohr
        C          -0.0000000   2.6917956  18.8972612
        C           2.3311634   1.3458978  18.8972612
end atoms_cart

     PseudoPot. # 1 for C  read from file:
     ./pseudo/C.pbe-n-kjpaw_psl.1.0.0.UPF
     MD5 check sum: 6fec8efd722f5d988670a8dc528584a2
     Pseudo is Projector augmented-wave + core cor, Zval =  4.0
     Generated using "atomic" code by A. Dal Corso  v.5.1.2
     Shape of augmentation charge: PSQ
     Using radial grid of 1073 points,  4 beta functions with: 
                l(1) =   0
                l(2) =   0
                l(3) =   1
                l(4) =   1
     Q(r) pseudized with 0 coefficients 


     atomic species   valence    mass     pseudopotential
        C              4.00    12.01070     C ( 1.00)

     24 Sym. Ops., with inversion, found



   Cartesian axes

     site n.     atom                  positions (alat units)
         1           C   tau(   1) = (  -0.0000000   0.5773503   4.0531825  )
         2           C   tau(   2) = (   0.5000000   0.2886751   4.0531825  )

     number of k points=  1332  Methfessel-Paxton smearing, width (Ry)=  0.0100

     Number of k-points >= 100: set verbosity='high' to print them.

     Dense  grid:   126311 G-vectors     FFT dimensions: (  36,  36, 270)

     Smooth grid:    68693 G-vectors     FFT dimensions: (  27,  27, 216)

     Estimated max dynamical RAM per process >      28.81 MB

     Estimated total dynamical RAM >     806.70 MB

     The potential is recalculated from file :
     ./_ph0/graphene.q_3/graphene.save/charge-density


     negative rho (up, down):  1.103E-04 0.000E+00
     Starting wfcs are    8 atomic wfcs
     Checking if some PAW data can be deallocated... 

     Band Structure Calculation
     Davidson diagonalization with overlap

     ethr =  1.25E-10,  avg # of iterations = 28.0

     total cpu time spent up to now is      191.6 secs

     End of band structure calculation

     Number of k-points >= 100: set verbosity='high' to print the bands.

     the Fermi energy is    -2.3538 ev

     Writing config to output data dir ./_ph0/graphene.q_3/graphene.save/

     Phonons                                                                    

     bravais-lattice index     =            4
     lattice parameter (alat)  =       4.6623  a.u.
     unit-cell volume          =     711.4836 (a.u.)^3
     number of atoms/cell      =            2
     number of atomic types    =            1
     kinetic-energy cut-off    =      80.0000  Ry
     charge density cut-off    =     480.0000  Ry
     convergence threshold     =      1.0E-16
     beta                      =       0.7000
     number of iterations used =            4
     Exchange-correlation= PBE
                           (   1   4   3   4   0   0   0)


     celldm(1)=    4.66233  celldm(2)=    0.00000  celldm(3)=    8.10636
     celldm(4)=    0.00000  celldm(5)=    0.00000  celldm(6)=    0.00000

     crystal axes: (cart. coord. in units of alat)
               a(1) = (  1.0000  0.0000  0.0000 )  
               a(2) = ( -0.5000  0.8660  0.0000 )  
               a(3) = (  0.0000  0.0000  8.1064 )  

     reciprocal axes: (cart. coord. in units 2 pi/alat)
               b(1) = (  1.0000  0.5774  0.0000 )  
               b(2) = (  0.0000  1.1547  0.0000 )  
               b(3) = (  0.0000  0.0000  0.1234 )  


     Atoms inside the unit cell: 

     Cartesian axes

     site n.  atom      mass           positions (alat units)
        1     C   12.0107   tau(    1) = (   -0.00000    0.57735    4.05318  )
        2     C   12.0107   tau(    2) = (    0.50000    0.28868    4.05318  )

     Computing dynamical matrix for 
                    q = (   0.0000000   0.1924501   0.0000000 )
 
      4 Sym.Ops. (no q -> -q+G )


     G cutoff =  264.2938  (  63163 G-vectors)     FFT grid: ( 36, 36,270)
     G cutoff =  176.1958  (  34335 G-vectors)  smooth grid: ( 27, 27,216)

     number of k points=  1332  Methfessel-Paxton smearing, width (Ry)=  0.0100

     PseudoPot. # 1 for C  read from file:
     ./pseudo/C.pbe-n-kjpaw_psl.1.0.0.UPF
     MD5 check sum: 6fec8efd722f5d988670a8dc528584a2
     Pseudo is Projector augmented-wave + core cor, Zval =  4.0
     Generated using "atomic" code by A. Dal Corso  v.5.1.2
     Shape of augmentation charge: PSQ
     Using radial grid of 1073 points,  4 beta functions with: 
                l(1) =   0
                l(2) =   0
                l(3) =   1
                l(4) =   1
     Q(r) pseudized with 0 coefficients 


     Mode symmetry, C_2v (mm2)  point group:


     Atomic displacements:
     There are    6 irreducible representations

     Representation     1      1 modes -  To be done

     Representation     2      1 modes -  To be done

     Representation     3      1 modes -  To be done

     Representation     4      1 modes -  To be done

     Representation     5      1 modes -  To be done

     Representation     6      1 modes -  To be done



     Alpha used in Ewald sum =   2.8000

     negative rho (up, down):  1.103E-04 0.000E+00
     PHONON       :  16m34.35s CPU  25m43.71s WALL



     Representation #   1 mode #   1

     Self-consistent Calculation

      iter #   1 total cpu time :  1560.2 secs   av.it.:   6.0
      thresh= 1.000E-02 alpha_mix =  0.700 |ddv_scf|^2 =  1.154E-05

      iter #   2 total cpu time :  1577.0 secs   av.it.:   9.9
      thresh= 3.396E-04 alpha_mix =  0.700 |ddv_scf|^2 =  7.281E-05

      iter #   3 total cpu time :  1596.9 secs   av.it.:   8.4
      thresh= 8.533E-04 alpha_mix =  0.700 |ddv_scf|^2 =  6.904E-09

      iter #   4 total cpu time :  1614.1 secs   av.it.:  10.9
      thresh= 8.309E-06 alpha_mix =  0.700 |ddv_scf|^2 =  3.363E-09

      iter #   5 total cpu time :  1634.8 secs   av.it.:  10.5
      thresh= 5.799E-06 alpha_mix =  0.700 |ddv_scf|^2 =  5.898E-11

      iter #   6 total cpu time :  1652.6 secs   av.it.:  10.6
      thresh= 7.680E-07 alpha_mix =  0.700 |ddv_scf|^2 =  2.515E-12

      iter #   7 total cpu time :  1675.0 secs   av.it.:   9.1
      thresh= 1.586E-07 alpha_mix =  0.700 |ddv_scf|^2 =  7.204E-13

      iter #   8 total cpu time :  1697.5 secs   av.it.:   9.2
      thresh= 8.488E-08 alpha_mix =  0.700 |ddv_scf|^2 =  3.313E-13

      iter #   9 total cpu time :  1718.5 secs   av.it.:   8.8
      thresh= 5.756E-08 alpha_mix =  0.700 |ddv_scf|^2 =  1.878E-15

      iter #  10 total cpu time :  1734.0 secs   av.it.:   9.3
      thresh= 4.334E-09 alpha_mix =  0.700 |ddv_scf|^2 =  4.284E-17

     End of self-consistent calculation

     Convergence has been achieved 


     Representation #   2 mode #   2

     Self-consistent Calculation

      iter #   1 total cpu time :  1753.2 secs   av.it.:   6.0
      thresh= 1.000E-02 alpha_mix =  0.700 |ddv_scf|^2 =  1.154E-05

      iter #   2 total cpu time :  1771.9 secs   av.it.:   9.9
      thresh= 3.396E-04 alpha_mix =  0.700 |ddv_scf|^2 =  7.281E-05

      iter #   3 total cpu time :  1793.3 secs   av.it.:   8.4
      thresh= 8.533E-04 alpha_mix =  0.700 |ddv_scf|^2 =  6.904E-09

      iter #   4 total cpu time :  1811.0 secs   av.it.:  10.9
      thresh= 8.309E-06 alpha_mix =  0.700 |ddv_scf|^2 =  3.363E-09

      iter #   5 total cpu time :  1828.5 secs   av.it.:  10.5
      thresh= 5.799E-06 alpha_mix =  0.700 |ddv_scf|^2 =  5.898E-11

      iter #   6 total cpu time :  1848.2 secs   av.it.:  10.6
      thresh= 7.680E-07 alpha_mix =  0.700 |ddv_scf|^2 =  2.515E-12

      iter #   7 total cpu time :  1872.2 secs   av.it.:   9.1
      thresh= 1.586E-07 alpha_mix =  0.700 |ddv_scf|^2 =  7.213E-13

      iter #   8 total cpu time :  1893.7 secs   av.it.:   9.2
      thresh= 8.493E-08 alpha_mix =  0.700 |ddv_scf|^2 =  3.312E-13

      iter #   9 total cpu time :  1916.1 secs   av.it.:   8.8
      thresh= 5.755E-08 alpha_mix =  0.700 |ddv_scf|^2 =  1.879E-15

      iter #  10 total cpu time :  1930.3 secs   av.it.:   9.3
      thresh= 4.335E-09 alpha_mix =  0.700 |ddv_scf|^2 =  4.285E-17

     End of self-consistent calculation

     Convergence has been achieved 


     Representation #   3 mode #   3

     Self-consistent Calculation

      iter #   1 total cpu time :  1949.2 secs   av.it.:   5.8
      thresh= 1.000E-02 alpha_mix =  0.700 |ddv_scf|^2 =  8.227E-08

      iter #   2 total cpu time :  1966.2 secs   av.it.:  10.5
      thresh= 2.868E-05 alpha_mix =  0.700 |ddv_scf|^2 =  5.523E-09

      iter #   3 total cpu time :  1991.2 secs   av.it.:   9.3
      thresh= 7.431E-06 alpha_mix =  0.700 |ddv_scf|^2 =  9.034E-11

      iter #   4 total cpu time :  2006.4 secs   av.it.:   9.3
      thresh= 9.505E-07 alpha_mix =  0.700 |ddv_scf|^2 =  4.073E-13

      iter #   5 total cpu time :  2026.3 secs   av.it.:   9.9
      thresh= 6.382E-08 alpha_mix =  0.700 |ddv_scf|^2 =  3.533E-15

      iter #   6 total cpu time :  2040.5 secs   av.it.:  10.3
      thresh= 5.944E-09 alpha_mix =  0.700 |ddv_scf|^2 =  6.699E-18

     End of self-consistent calculation

     Convergence has been achieved 


     Representation #   4 mode #   4

     Self-consistent Calculation

      iter #   1 total cpu time :  2061.5 secs   av.it.:   5.8
      thresh= 1.000E-02 alpha_mix =  0.700 |ddv_scf|^2 =  8.227E-08

      iter #   2 total cpu time :  2077.7 secs   av.it.:  10.5
      thresh= 2.868E-05 alpha_mix =  0.700 |ddv_scf|^2 =  5.523E-09

      iter #   3 total cpu time :  2100.0 secs   av.it.:   9.3
      thresh= 7.431E-06 alpha_mix =  0.700 |ddv_scf|^2 =  9.034E-11

      iter #   4 total cpu time :  2120.6 secs   av.it.:   9.3
      thresh= 9.505E-07 alpha_mix =  0.700 |ddv_scf|^2 =  4.073E-13

      iter #   5 total cpu time :  2138.0 secs   av.it.:   9.9
      thresh= 6.382E-08 alpha_mix =  0.700 |ddv_scf|^2 =  3.533E-15

      iter #   6 total cpu time :  2155.7 secs   av.it.:  10.3
      thresh= 5.944E-09 alpha_mix =  0.700 |ddv_scf|^2 =  6.699E-18

     End of self-consistent calculation

     Convergence has been achieved 


     Representation #   5 mode #   5

     Self-consistent Calculation

      iter #   1 total cpu time :  2174.3 secs   av.it.:   6.0
      thresh= 1.000E-02 alpha_mix =  0.700 |ddv_scf|^2 =  1.383E-06

      iter #   2 total cpu time :  2193.6 secs   av.it.:  10.2
      thresh= 1.176E-04 alpha_mix =  0.700 |ddv_scf|^2 =  4.538E-07

      iter #   3 total cpu time :  2216.5 secs   av.it.:   9.9
      thresh= 6.736E-05 alpha_mix =  0.700 |ddv_scf|^2 =  4.037E-09

      iter #   4 total cpu time :  2232.5 secs   av.it.:   9.2
      thresh= 6.354E-06 alpha_mix =  0.700 |ddv_scf|^2 =  1.907E-12

      iter #   5 total cpu time :  2251.4 secs   av.it.:  10.0
      thresh= 1.381E-07 alpha_mix =  0.700 |ddv_scf|^2 =  9.306E-14

      iter #   6 total cpu time :  2268.7 secs   av.it.:   9.2
      thresh= 3.051E-08 alpha_mix =  0.700 |ddv_scf|^2 =  7.320E-16

      iter #   7 total cpu time :  2282.4 secs   av.it.:  10.2
      thresh= 2.706E-09 alpha_mix =  0.700 |ddv_scf|^2 =  1.192E-17

     End of self-consistent calculation

     Convergence has been achieved 


     Representation #   6 mode #   6

     Self-consistent Calculation

      iter #   1 total cpu time :  2300.7 secs   av.it.:   6.0
      thresh= 1.000E-02 alpha_mix =  0.700 |ddv_scf|^2 =  1.383E-06

      iter #   2 total cpu time :  2317.6 secs   av.it.:  10.2
      thresh= 1.176E-04 alpha_mix =  0.700 |ddv_scf|^2 =  4.538E-07

      iter #   3 total cpu time :  2340.1 secs   av.it.:   9.9
      thresh= 6.736E-05 alpha_mix =  0.700 |ddv_scf|^2 =  4.037E-09

      iter #   4 total cpu time :  2356.6 secs   av.it.:   9.2
      thresh= 6.354E-06 alpha_mix =  0.700 |ddv_scf|^2 =  1.907E-12

      iter #   5 total cpu time :  2376.5 secs   av.it.:  10.0
      thresh= 1.381E-07 alpha_mix =  0.700 |ddv_scf|^2 =  9.306E-14

      iter #   6 total cpu time :  2393.8 secs   av.it.:   9.2
      thresh= 3.051E-08 alpha_mix =  0.700 |ddv_scf|^2 =  7.320E-16

      iter #   7 total cpu time :  2410.1 secs   av.it.:  10.2
      thresh= 2.706E-09 alpha_mix =  0.700 |ddv_scf|^2 =  1.192E-17

     End of self-consistent calculation

     Convergence has been achieved 
 
     Number of q in the star =    6
     List of q in the star:
          1   0.000000000   0.192450090   0.000000000
          2   0.000000000  -0.192450090   0.000000000
          3  -0.166666667   0.096225045   0.000000000
          4  -0.166666667  -0.096225045   0.000000000
          5   0.166666667  -0.096225045   0.000000000
          6   0.166666667   0.096225045   0.000000000

     Diagonalizing the dynamical matrix

     q = (    0.000000000   0.192450090   0.000000000 ) 

 **************************************************************************
     freq (    1) =       2.663769 [THz] =      88.853755 [cm-1]
     freq (    2) =      10.071698 [THz] =     335.955685 [cm-1]
     freq (    3) =      16.369580 [THz] =     546.030422 [cm-1]
     freq (    4) =      25.570649 [THz] =     852.945052 [cm-1]
     freq (    5) =      45.205734 [THz] =    1507.900978 [cm-1]
     freq (    6) =      47.986877 [THz] =    1600.669922 [cm-1]
 **************************************************************************

     Mode symmetry, C_2v (mm2)  point group:

     freq (   1-   1) =         88.9  [cm-1]   --> B_2  D_4  S_4      
     freq (   2-   2) =        336.0  [cm-1]   --> B_1  D_3  S_3      
     freq (   3-   3) =        546.0  [cm-1]   --> A_1  D_1  S_1      
     freq (   4-   4) =        852.9  [cm-1]   --> B_2  D_4  S_4      
     freq (   5-   5) =       1507.9  [cm-1]   --> B_1  D_3  S_3      
     freq (   6-   6) =       1600.7  [cm-1]   --> A_1  D_1  S_1      

     Calculation of q =    0.0000000   0.2886751   0.0000000
 
     Parallelization info
     --------------------
     sticks:   dense  smooth     PW     G-vecs:    dense   smooth      PW
     Min         360     237     75                63148    34335    6341
     Max         361     238     76                63163    34358    6376
     Sum         721     475    151               126311    68693   12717
 
     Using Slab Decomposition
 

     Title: 
     Phonons                                                                    


     bravais-lattice index     =            4
     lattice parameter (alat)  =       4.6623  a.u.
     unit-cell volume          =     711.4836 (a.u.)^3
     number of atoms/cell      =            2
     number of atomic types    =            1
     number of electrons       =         8.00
     number of Kohn-Sham states=            8
     kinetic-energy cutoff     =      80.0000  Ry
     charge density cutoff     =     480.0000  Ry
     Exchange-correlation= PBE
                           (   1   4   3   4   0   0   0)

     celldm(1)=   4.662327  celldm(2)=   0.000000  celldm(3)=   8.106365
     celldm(4)=   0.000000  celldm(5)=   0.000000  celldm(6)=   0.000000

     crystal axes: (cart. coord. in units of alat)
               a(1) = (   1.000000   0.000000   0.000000 )  
               a(2) = (  -0.500000   0.866025   0.000000 )  
               a(3) = (   0.000000   0.000000   8.106365 )  

     reciprocal axes: (cart. coord. in units 2 pi/alat)
               b(1) = (  1.000000  0.577350  0.000000 )  
               b(2) = (  0.000000  1.154701  0.000000 )  
               b(3) = (  0.000000  0.000000  0.123360 )  

Write cell and positions for Wanner90.x
begin unit_cell_cart
Bohr
        4.6623268   0.0000000   0.0000000
       -2.3311634   4.0376934   0.0000000
        0.0000000   0.0000000  37.7945225
end unit_cell_cart

begin atoms_cart
Bohr
        C          -0.0000000   2.6917956  18.8972612
        C           2.3311634   1.3458978  18.8972612
end atoms_cart

     PseudoPot. # 1 for C  read from file:
     ./pseudo/C.pbe-n-kjpaw_psl.1.0.0.UPF
     MD5 check sum: 6fec8efd722f5d988670a8dc528584a2
     Pseudo is Projector augmented-wave + core cor, Zval =  4.0
     Generated using "atomic" code by A. Dal Corso  v.5.1.2
     Shape of augmentation charge: PSQ
     Using radial grid of 1073 points,  4 beta functions with: 
                l(1) =   0
                l(2) =   0
                l(3) =   1
                l(4) =   1
     Q(r) pseudized with 0 coefficients 


     atomic species   valence    mass     pseudopotential
        C              4.00    12.01070     C ( 1.00)

     24 Sym. Ops., with inversion, found



   Cartesian axes

     site n.     atom                  positions (alat units)
         1           C   tau(   1) = (  -0.0000000   0.5773503   4.0531825  )
         2           C   tau(   2) = (   0.5000000   0.2886751   4.0531825  )

     number of k points=  1332  Methfessel-Paxton smearing, width (Ry)=  0.0100

     Number of k-points >= 100: set verbosity='high' to print them.

     Dense  grid:   126311 G-vectors     FFT dimensions: (  36,  36, 270)

     Smooth grid:    68693 G-vectors     FFT dimensions: (  27,  27, 216)

     Estimated max dynamical RAM per process >      28.81 MB

     Estimated total dynamical RAM >     806.79 MB

     The potential is recalculated from file :
     ./_ph0/graphene.q_4/graphene.save/charge-density


     negative rho (up, down):  1.103E-04 0.000E+00
     Starting wfcs are    8 atomic wfcs
     Checking if some PAW data can be deallocated... 

     Band Structure Calculation
     Davidson diagonalization with overlap

     ethr =  1.25E-10,  avg # of iterations = 28.0

     total cpu time spent up to now is      286.6 secs

     End of band structure calculation

     Number of k-points >= 100: set verbosity='high' to print the bands.

     the Fermi energy is    -2.3538 ev

     Writing config to output data dir ./_ph0/graphene.q_4/graphene.save/

     Phonons                                                                    

     bravais-lattice index     =            4
     lattice parameter (alat)  =       4.6623  a.u.
     unit-cell volume          =     711.4836 (a.u.)^3
     number of atoms/cell      =            2
     number of atomic types    =            1
     kinetic-energy cut-off    =      80.0000  Ry
     charge density cut-off    =     480.0000  Ry
     convergence threshold     =      1.0E-16
     beta                      =       0.7000
     number of iterations used =            4
     Exchange-correlation= PBE
                           (   1   4   3   4   0   0   0)


     celldm(1)=    4.66233  celldm(2)=    0.00000  celldm(3)=    8.10636
     celldm(4)=    0.00000  celldm(5)=    0.00000  celldm(6)=    0.00000

     crystal axes: (cart. coord. in units of alat)
               a(1) = (  1.0000  0.0000  0.0000 )  
               a(2) = ( -0.5000  0.8660  0.0000 )  
               a(3) = (  0.0000  0.0000  8.1064 )  

     reciprocal axes: (cart. coord. in units 2 pi/alat)
               b(1) = (  1.0000  0.5774  0.0000 )  
               b(2) = (  0.0000  1.1547  0.0000 )  
               b(3) = (  0.0000  0.0000  0.1234 )  


     Atoms inside the unit cell: 

     Cartesian axes

     site n.  atom      mass           positions (alat units)
        1     C   12.0107   tau(    1) = (   -0.00000    0.57735    4.05318  )
        2     C   12.0107   tau(    2) = (    0.50000    0.28868    4.05318  )

     Computing dynamical matrix for 
                    q = (   0.0000000   0.2886751   0.0000000 )
 
      4 Sym.Ops. (no q -> -q+G )


     G cutoff =  264.2938  (  63163 G-vectors)     FFT grid: ( 36, 36,270)
     G cutoff =  176.1958  (  34335 G-vectors)  smooth grid: ( 27, 27,216)

     number of k points=  1332  Methfessel-Paxton smearing, width (Ry)=  0.0100

     PseudoPot. # 1 for C  read from file:
     ./pseudo/C.pbe-n-kjpaw_psl.1.0.0.UPF
     MD5 check sum: 6fec8efd722f5d988670a8dc528584a2
     Pseudo is Projector augmented-wave + core cor, Zval =  4.0
     Generated using "atomic" code by A. Dal Corso  v.5.1.2
     Shape of augmentation charge: PSQ
     Using radial grid of 1073 points,  4 beta functions with: 
                l(1) =   0
                l(2) =   0
                l(3) =   1
                l(4) =   1
     Q(r) pseudized with 0 coefficients 


     Mode symmetry, C_2v (mm2)  point group:


     Atomic displacements:
     There are    6 irreducible representations

     Representation     1      1 modes -  To be done

     Representation     2      1 modes -  To be done

     Representation     3      1 modes -  To be done

     Representation     4      1 modes -  To be done

     Representation     5      1 modes -  To be done

     Representation     6      1 modes -  To be done



     Alpha used in Ewald sum =   2.8000

     negative rho (up, down):  1.103E-04 0.000E+00
     PHONON       :  28m 6.49s CPU  42m20.02s WALL



     Representation #   1 mode #   1

     Self-consistent Calculation

      iter #   1 total cpu time :  2552.4 secs   av.it.:   6.1
      thresh= 1.000E-02 alpha_mix =  0.700 |ddv_scf|^2 =  5.046E-06

      iter #   2 total cpu time :  2568.5 secs   av.it.:  10.4
      thresh= 2.246E-04 alpha_mix =  0.700 |ddv_scf|^2 =  2.142E-05

      iter #   3 total cpu time :  2597.4 secs   av.it.:   9.1
      thresh= 4.628E-04 alpha_mix =  0.700 |ddv_scf|^2 =  1.244E-08

      iter #   4 total cpu time :  2615.2 secs   av.it.:  10.8
      thresh= 1.115E-05 alpha_mix =  0.700 |ddv_scf|^2 =  3.920E-09

      iter #   5 total cpu time :  2637.4 secs   av.it.:  10.6
      thresh= 6.261E-06 alpha_mix =  0.700 |ddv_scf|^2 =  6.796E-11

      iter #   6 total cpu time :  2659.0 secs   av.it.:  10.6
      thresh= 8.244E-07 alpha_mix =  0.700 |ddv_scf|^2 =  9.985E-13

      iter #   7 total cpu time :  2680.1 secs   av.it.:   9.6
      thresh= 9.993E-08 alpha_mix =  0.700 |ddv_scf|^2 =  1.356E-14

      iter #   8 total cpu time :  2701.9 secs   av.it.:  10.0
      thresh= 1.164E-08 alpha_mix =  0.700 |ddv_scf|^2 =  1.840E-14

      iter #   9 total cpu time :  2723.4 secs   av.it.:   9.4
      thresh= 1.356E-08 alpha_mix =  0.700 |ddv_scf|^2 =  3.297E-15

      iter #  10 total cpu time :  2741.6 secs   av.it.:   9.5
      thresh= 5.742E-09 alpha_mix =  0.700 |ddv_scf|^2 =  6.364E-17

     End of self-consistent calculation

     Convergence has been achieved 


     Representation #   2 mode #   2

     Self-consistent Calculation

      iter #   1 total cpu time :  2766.7 secs   av.it.:   6.1
      thresh= 1.000E-02 alpha_mix =  0.700 |ddv_scf|^2 =  5.046E-06

      iter #   2 total cpu time :  2788.7 secs   av.it.:  10.4
      thresh= 2.246E-04 alpha_mix =  0.700 |ddv_scf|^2 =  2.142E-05

      iter #   3 total cpu time :  2814.4 secs   av.it.:   9.1
      thresh= 4.628E-04 alpha_mix =  0.700 |ddv_scf|^2 =  1.244E-08

      iter #   4 total cpu time :  2836.7 secs   av.it.:  10.8
      thresh= 1.115E-05 alpha_mix =  0.700 |ddv_scf|^2 =  3.920E-09

      iter #   5 total cpu time :  2856.7 secs   av.it.:  10.6
      thresh= 6.261E-06 alpha_mix =  0.700 |ddv_scf|^2 =  6.796E-11

      iter #   6 total cpu time :  2875.1 secs   av.it.:  10.6
      thresh= 8.244E-07 alpha_mix =  0.700 |ddv_scf|^2 =  9.985E-13

      iter #   7 total cpu time :  2901.2 secs   av.it.:   9.6
      thresh= 9.993E-08 alpha_mix =  0.700 |ddv_scf|^2 =  1.357E-14

      iter #   8 total cpu time :  2928.5 secs   av.it.:  10.0
      thresh= 1.165E-08 alpha_mix =  0.700 |ddv_scf|^2 =  1.846E-14

      iter #   9 total cpu time :  2954.4 secs   av.it.:   9.4
      thresh= 1.359E-08 alpha_mix =  0.700 |ddv_scf|^2 =  3.293E-15

      iter #  10 total cpu time :  2967.4 secs   av.it.:   9.5
      thresh= 5.738E-09 alpha_mix =  0.700 |ddv_scf|^2 =  6.376E-17

     End of self-consistent calculation

     Convergence has been achieved 


     Representation #   3 mode #   3

     Self-consistent Calculation

      iter #   1 total cpu time :  2988.9 secs   av.it.:   5.8
      thresh= 1.000E-02 alpha_mix =  0.700 |ddv_scf|^2 =  9.059E-08

      iter #   2 total cpu time :  3009.7 secs   av.it.:  10.4
      thresh= 3.010E-05 alpha_mix =  0.700 |ddv_scf|^2 =  5.839E-09

      iter #   3 total cpu time :  3037.1 secs   av.it.:   9.4
      thresh= 7.641E-06 alpha_mix =  0.700 |ddv_scf|^2 =  1.364E-10

      iter #   4 total cpu time :  3058.0 secs   av.it.:   9.4
      thresh= 1.168E-06 alpha_mix =  0.700 |ddv_scf|^2 =  4.520E-13

      iter #   5 total cpu time :  3079.2 secs   av.it.:  10.0
      thresh= 6.723E-08 alpha_mix =  0.700 |ddv_scf|^2 =  2.316E-15

      iter #   6 total cpu time :  3093.5 secs   av.it.:  10.5
      thresh= 4.812E-09 alpha_mix =  0.700 |ddv_scf|^2 =  6.051E-18

     End of self-consistent calculation

     Convergence has been achieved 


     Representation #   4 mode #   4

     Self-consistent Calculation

      iter #   1 total cpu time :  3116.8 secs   av.it.:   5.8
      thresh= 1.000E-02 alpha_mix =  0.700 |ddv_scf|^2 =  9.059E-08

      iter #   2 total cpu time :  3135.4 secs   av.it.:  10.4
      thresh= 3.010E-05 alpha_mix =  0.700 |ddv_scf|^2 =  5.839E-09

      iter #   3 total cpu time :  3163.1 secs   av.it.:   9.4
      thresh= 7.641E-06 alpha_mix =  0.700 |ddv_scf|^2 =  1.364E-10

      iter #   4 total cpu time :  3182.8 secs   av.it.:   9.4
      thresh= 1.168E-06 alpha_mix =  0.700 |ddv_scf|^2 =  4.520E-13

      iter #   5 total cpu time :  3204.8 secs   av.it.:  10.0
      thresh= 6.723E-08 alpha_mix =  0.700 |ddv_scf|^2 =  2.316E-15

      iter #   6 total cpu time :  3221.3 secs   av.it.:  10.5
      thresh= 4.812E-09 alpha_mix =  0.700 |ddv_scf|^2 =  6.051E-18

     End of self-consistent calculation

     Convergence has been achieved 


     Representation #   5 mode #   5

     Self-consistent Calculation

      iter #   1 total cpu time :  3240.3 secs   av.it.:   6.0
      thresh= 1.000E-02 alpha_mix =  0.700 |ddv_scf|^2 =  5.575E-07

      iter #   2 total cpu time :  3259.1 secs   av.it.:  10.5
      thresh= 7.466E-05 alpha_mix =  0.700 |ddv_scf|^2 =  7.941E-08

      iter #   3 total cpu time :  3290.2 secs   av.it.:  10.2
      thresh= 2.818E-05 alpha_mix =  0.700 |ddv_scf|^2 =  3.174E-09

      iter #   4 total cpu time :  3308.1 secs   av.it.:   9.9
      thresh= 5.634E-06 alpha_mix =  0.700 |ddv_scf|^2 =  1.547E-12

      iter #   5 total cpu time :  3329.1 secs   av.it.:  10.2
      thresh= 1.244E-07 alpha_mix =  0.700 |ddv_scf|^2 =  6.668E-14

      iter #   6 total cpu time :  3349.6 secs   av.it.:   9.8
      thresh= 2.582E-08 alpha_mix =  0.700 |ddv_scf|^2 =  3.283E-16

      iter #   7 total cpu time :  3365.6 secs   av.it.:  10.2
      thresh= 1.812E-09 alpha_mix =  0.700 |ddv_scf|^2 =  9.399E-18

     End of self-consistent calculation

     Convergence has been achieved 


     Representation #   6 mode #   6

     Self-consistent Calculation

      iter #   1 total cpu time :  3383.5 secs   av.it.:   6.0
      thresh= 1.000E-02 alpha_mix =  0.700 |ddv_scf|^2 =  5.575E-07

      iter #   2 total cpu time :  3402.4 secs   av.it.:  10.5
      thresh= 7.466E-05 alpha_mix =  0.700 |ddv_scf|^2 =  7.941E-08

      iter #   3 total cpu time :  3425.9 secs   av.it.:  10.2
      thresh= 2.818E-05 alpha_mix =  0.700 |ddv_scf|^2 =  3.174E-09

      iter #   4 total cpu time :  3447.5 secs   av.it.:   9.9
      thresh= 5.634E-06 alpha_mix =  0.700 |ddv_scf|^2 =  1.547E-12

      iter #   5 total cpu time :  3468.9 secs   av.it.:  10.2
      thresh= 1.244E-07 alpha_mix =  0.700 |ddv_scf|^2 =  6.668E-14

      iter #   6 total cpu time :  3489.1 secs   av.it.:   9.8
      thresh= 2.582E-08 alpha_mix =  0.700 |ddv_scf|^2 =  3.284E-16

      iter #   7 total cpu time :  3505.1 secs   av.it.:  10.2
      thresh= 1.812E-09 alpha_mix =  0.700 |ddv_scf|^2 =  9.399E-18

     End of self-consistent calculation

     Convergence has been achieved 
 
     Number of q in the star =    6
     List of q in the star:
          1   0.000000000   0.288675135   0.000000000
          2   0.000000000  -0.288675135   0.000000000
          3  -0.250000000   0.144337567   0.000000000
          4  -0.250000000  -0.144337567   0.000000000
          5   0.250000000  -0.144337567   0.000000000
          6   0.250000000   0.144337567   0.000000000

     Diagonalizing the dynamical matrix

     q = (    0.000000000   0.288675135   0.000000000 ) 

 **************************************************************************
     freq (    1) =       4.971003 [THz] =     165.814800 [cm-1]
     freq (    2) =      13.879785 [THz] =     462.979794 [cm-1]
     freq (    3) =      23.648977 [THz] =     788.844961 [cm-1]
     freq (    4) =      24.616856 [THz] =     821.129919 [cm-1]
     freq (    5) =      43.900123 [THz] =    1464.350487 [cm-1]
     freq (    6) =      47.445122 [THz] =    1582.598919 [cm-1]
 **************************************************************************

     Mode symmetry, C_2v (mm2)  point group:

     freq (   1-   1) =        165.8  [cm-1]   --> B_2  D_4  S_4      
     freq (   2-   2) =        463.0  [cm-1]   --> B_1  D_3  S_3      
     freq (   3-   3) =        788.8  [cm-1]   --> A_1  D_1  S_1      
     freq (   4-   4) =        821.1  [cm-1]   --> B_2  D_4  S_4      
     freq (   5-   5) =       1464.4  [cm-1]   --> B_1  D_3  S_3      
     freq (   6-   6) =       1582.6  [cm-1]   --> A_1  D_1  S_1      

     Calculation of q =    0.0000000   0.3849002   0.0000000
 
     Parallelization info
     --------------------
     sticks:   dense  smooth     PW     G-vecs:    dense   smooth      PW
     Min         360     237     81                63148    34335    6629
     Max         361     238     82                63163    34358    6630
     Sum         721     475    163               126311    68693   13259
 
     Using Slab Decomposition
 

     Title: 
     Phonons                                                                    


     bravais-lattice index     =            4
     lattice parameter (alat)  =       4.6623  a.u.
     unit-cell volume          =     711.4836 (a.u.)^3
     number of atoms/cell      =            2
     number of atomic types    =            1
     number of electrons       =         8.00
     number of Kohn-Sham states=            8
     kinetic-energy cutoff     =      80.0000  Ry
     charge density cutoff     =     480.0000  Ry
     Exchange-correlation= PBE
                           (   1   4   3   4   0   0   0)

     celldm(1)=   4.662327  celldm(2)=   0.000000  celldm(3)=   8.106365
     celldm(4)=   0.000000  celldm(5)=   0.000000  celldm(6)=   0.000000

     crystal axes: (cart. coord. in units of alat)
               a(1) = (   1.000000   0.000000   0.000000 )  
               a(2) = (  -0.500000   0.866025   0.000000 )  
               a(3) = (   0.000000   0.000000   8.106365 )  

     reciprocal axes: (cart. coord. in units 2 pi/alat)
               b(1) = (  1.000000  0.577350  0.000000 )  
               b(2) = (  0.000000  1.154701  0.000000 )  
               b(3) = (  0.000000  0.000000  0.123360 )  

Write cell and positions for Wanner90.x
begin unit_cell_cart
Bohr
        4.6623268   0.0000000   0.0000000
       -2.3311634   4.0376934   0.0000000
        0.0000000   0.0000000  37.7945225
end unit_cell_cart

begin atoms_cart
Bohr
        C          -0.0000000   2.6917956  18.8972612
        C           2.3311634   1.3458978  18.8972612
end atoms_cart

     PseudoPot. # 1 for C  read from file:
     ./pseudo/C.pbe-n-kjpaw_psl.1.0.0.UPF
     MD5 check sum: 6fec8efd722f5d988670a8dc528584a2
     Pseudo is Projector augmented-wave + core cor, Zval =  4.0
     Generated using "atomic" code by A. Dal Corso  v.5.1.2
     Shape of augmentation charge: PSQ
     Using radial grid of 1073 points,  4 beta functions with: 
                l(1) =   0
                l(2) =   0
                l(3) =   1
                l(4) =   1
     Q(r) pseudized with 0 coefficients 


     atomic species   valence    mass     pseudopotential
        C              4.00    12.01070     C ( 1.00)

     24 Sym. Ops., with inversion, found



   Cartesian axes

     site n.     atom                  positions (alat units)
         1           C   tau(   1) = (  -0.0000000   0.5773503   4.0531825  )
         2           C   tau(   2) = (   0.5000000   0.2886751   4.0531825  )

     number of k points=  1332  Methfessel-Paxton smearing, width (Ry)=  0.0100

     Number of k-points >= 100: set verbosity='high' to print them.

     Dense  grid:   126311 G-vectors     FFT dimensions: (  36,  36, 270)

     Smooth grid:    68693 G-vectors     FFT dimensions: (  27,  27, 216)

     Estimated max dynamical RAM per process >      28.82 MB

     Estimated total dynamical RAM >     806.87 MB

     The potential is recalculated from file :
     ./_ph0/graphene.q_5/graphene.save/charge-density


     negative rho (up, down):  1.103E-04 0.000E+00
     Starting wfcs are    8 atomic wfcs
     Checking if some PAW data can be deallocated... 

     Band Structure Calculation
     Davidson diagonalization with overlap

     ethr =  1.25E-10,  avg # of iterations = 28.0

     total cpu time spent up to now is      384.0 secs

     End of band structure calculation

     Number of k-points >= 100: set verbosity='high' to print the bands.

     the Fermi energy is    -2.3538 ev

     Writing config to output data dir ./_ph0/graphene.q_5/graphene.save/

     Phonons                                                                    

     bravais-lattice index     =            4
     lattice parameter (alat)  =       4.6623  a.u.
     unit-cell volume          =     711.4836 (a.u.)^3
     number of atoms/cell      =            2
     number of atomic types    =            1
     kinetic-energy cut-off    =      80.0000  Ry
     charge density cut-off    =     480.0000  Ry
     convergence threshold     =      1.0E-16
     beta                      =       0.7000
     number of iterations used =            4
     Exchange-correlation= PBE
                           (   1   4   3   4   0   0   0)


     celldm(1)=    4.66233  celldm(2)=    0.00000  celldm(3)=    8.10636
     celldm(4)=    0.00000  celldm(5)=    0.00000  celldm(6)=    0.00000

     crystal axes: (cart. coord. in units of alat)
               a(1) = (  1.0000  0.0000  0.0000 )  
               a(2) = ( -0.5000  0.8660  0.0000 )  
               a(3) = (  0.0000  0.0000  8.1064 )  

     reciprocal axes: (cart. coord. in units 2 pi/alat)
               b(1) = (  1.0000  0.5774  0.0000 )  
               b(2) = (  0.0000  1.1547  0.0000 )  
               b(3) = (  0.0000  0.0000  0.1234 )  


     Atoms inside the unit cell: 

     Cartesian axes

     site n.  atom      mass           positions (alat units)
        1     C   12.0107   tau(    1) = (   -0.00000    0.57735    4.05318  )
        2     C   12.0107   tau(    2) = (    0.50000    0.28868    4.05318  )

     Computing dynamical matrix for 
                    q = (   0.0000000   0.3849002   0.0000000 )
 
      4 Sym.Ops. (no q -> -q+G )


     G cutoff =  264.2938  (  63163 G-vectors)     FFT grid: ( 36, 36,270)
     G cutoff =  176.1958  (  34335 G-vectors)  smooth grid: ( 27, 27,216)

     number of k points=  1332  Methfessel-Paxton smearing, width (Ry)=  0.0100

     PseudoPot. # 1 for C  read from file:
     ./pseudo/C.pbe-n-kjpaw_psl.1.0.0.UPF
     MD5 check sum: 6fec8efd722f5d988670a8dc528584a2
     Pseudo is Projector augmented-wave + core cor, Zval =  4.0
     Generated using "atomic" code by A. Dal Corso  v.5.1.2
     Shape of augmentation charge: PSQ
     Using radial grid of 1073 points,  4 beta functions with: 
                l(1) =   0
                l(2) =   0
                l(3) =   1
                l(4) =   1
     Q(r) pseudized with 0 coefficients 


     Mode symmetry, C_2v (mm2)  point group:


     Atomic displacements:
     There are    6 irreducible representations

     Representation     1      1 modes -  To be done

     Representation     2      1 modes -  To be done

     Representation     3      1 modes -  To be done

     Representation     4      1 modes -  To be done

     Representation     5      1 modes -  To be done

     Representation     6      1 modes -  To be done



     Alpha used in Ewald sum =   2.8000

     negative rho (up, down):  1.103E-04 0.000E+00
     PHONON       :  39m43.64s CPU      1h 0m WALL



     Representation #   1 mode #   1

     Self-consistent Calculation

      iter #   1 total cpu time :  3671.6 secs   av.it.:   6.1
      thresh= 1.000E-02 alpha_mix =  0.700 |ddv_scf|^2 =  2.437E-06

      iter #   2 total cpu time :  3690.9 secs   av.it.:  10.8
      thresh= 1.561E-04 alpha_mix =  0.700 |ddv_scf|^2 =  6.378E-06

      iter #   3 total cpu time :  3710.9 secs   av.it.:   9.6
      thresh= 2.525E-04 alpha_mix =  0.700 |ddv_scf|^2 =  1.966E-08

      iter #   4 total cpu time :  3731.6 secs   av.it.:  10.8
      thresh= 1.402E-05 alpha_mix =  0.700 |ddv_scf|^2 =  4.585E-09

      iter #   5 total cpu time :  3755.0 secs   av.it.:  10.6
      thresh= 6.772E-06 alpha_mix =  0.700 |ddv_scf|^2 =  9.524E-11

      iter #   6 total cpu time :  3776.4 secs   av.it.:  10.6
      thresh= 9.759E-07 alpha_mix =  0.700 |ddv_scf|^2 =  3.195E-13

      iter #   7 total cpu time :  3801.0 secs   av.it.:  10.1
      thresh= 5.653E-08 alpha_mix =  0.700 |ddv_scf|^2 =  1.272E-14

      iter #   8 total cpu time :  3829.6 secs   av.it.:  10.0
      thresh= 1.128E-08 alpha_mix =  0.700 |ddv_scf|^2 =  1.046E-16

      iter #   9 total cpu time :  3854.8 secs   av.it.:  10.5
      thresh= 1.023E-09 alpha_mix =  0.700 |ddv_scf|^2 =  1.492E-16

      iter #  10 total cpu time :  3870.5 secs   av.it.:   9.6
      thresh= 1.221E-09 alpha_mix =  0.700 |ddv_scf|^2 =  1.581E-18

     End of self-consistent calculation

     Convergence has been achieved 


     Representation #   2 mode #   2

     Self-consistent Calculation

      iter #   1 total cpu time :  3895.3 secs   av.it.:   6.1
      thresh= 1.000E-02 alpha_mix =  0.700 |ddv_scf|^2 =  2.437E-06

      iter #   2 total cpu time :  3916.6 secs   av.it.:  10.8
      thresh= 1.561E-04 alpha_mix =  0.700 |ddv_scf|^2 =  6.378E-06

      iter #   3 total cpu time :  3943.9 secs   av.it.:   9.6
      thresh= 2.525E-04 alpha_mix =  0.700 |ddv_scf|^2 =  1.966E-08

      iter #   4 total cpu time :  3962.7 secs   av.it.:  10.8
      thresh= 1.402E-05 alpha_mix =  0.700 |ddv_scf|^2 =  4.585E-09

      iter #   5 total cpu time :  3981.3 secs   av.it.:  10.6
      thresh= 6.772E-06 alpha_mix =  0.700 |ddv_scf|^2 =  9.524E-11

      iter #   6 total cpu time :  4001.3 secs   av.it.:  10.6
      thresh= 9.759E-07 alpha_mix =  0.700 |ddv_scf|^2 =  3.195E-13

      iter #   7 total cpu time :  4032.8 secs   av.it.:  10.1
      thresh= 5.653E-08 alpha_mix =  0.700 |ddv_scf|^2 =  1.272E-14

      iter #   8 total cpu time :  4060.0 secs   av.it.:  10.0
      thresh= 1.128E-08 alpha_mix =  0.700 |ddv_scf|^2 =  1.045E-16

      iter #   9 total cpu time :  4086.4 secs   av.it.:  10.5
      thresh= 1.022E-09 alpha_mix =  0.700 |ddv_scf|^2 =  1.486E-16

      iter #  10 total cpu time :  4102.7 secs   av.it.:   9.6
      thresh= 1.219E-09 alpha_mix =  0.700 |ddv_scf|^2 =  1.585E-18

     End of self-consistent calculation

     Convergence has been achieved 


     Representation #   3 mode #   3

     Self-consistent Calculation

      iter #   1 total cpu time :  4127.1 secs   av.it.:   5.8
      thresh= 1.000E-02 alpha_mix =  0.700 |ddv_scf|^2 =  1.004E-07

      iter #   2 total cpu time :  4150.4 secs   av.it.:  10.4
      thresh= 3.169E-05 alpha_mix =  0.700 |ddv_scf|^2 =  6.301E-09

      iter #   3 total cpu time :  4178.2 secs   av.it.:   9.5
      thresh= 7.938E-06 alpha_mix =  0.700 |ddv_scf|^2 =  1.887E-10

      iter #   4 total cpu time :  4199.5 secs   av.it.:   9.4
      thresh= 1.374E-06 alpha_mix =  0.700 |ddv_scf|^2 =  4.760E-13

      iter #   5 total cpu time :  4216.9 secs   av.it.:   9.8
      thresh= 6.900E-08 alpha_mix =  0.700 |ddv_scf|^2 =  1.003E-15

      iter #   6 total cpu time :  4233.6 secs   av.it.:  10.6
      thresh= 3.168E-09 alpha_mix =  0.700 |ddv_scf|^2 =  6.223E-18

     End of self-consistent calculation

     Convergence has been achieved 


     Representation #   4 mode #   4

     Self-consistent Calculation

      iter #   1 total cpu time :  4252.8 secs   av.it.:   5.8
      thresh= 1.000E-02 alpha_mix =  0.700 |ddv_scf|^2 =  1.004E-07

      iter #   2 total cpu time :  4272.5 secs   av.it.:  10.4
      thresh= 3.169E-05 alpha_mix =  0.700 |ddv_scf|^2 =  6.301E-09

      iter #   3 total cpu time :  4293.8 secs   av.it.:   9.5
      thresh= 7.938E-06 alpha_mix =  0.700 |ddv_scf|^2 =  1.887E-10

      iter #   4 total cpu time :  4314.8 secs   av.it.:   9.4
      thresh= 1.374E-06 alpha_mix =  0.700 |ddv_scf|^2 =  4.760E-13

      iter #   5 total cpu time :  4333.8 secs   av.it.:   9.8
      thresh= 6.900E-08 alpha_mix =  0.700 |ddv_scf|^2 =  1.003E-15

      iter #   6 total cpu time :  4355.0 secs   av.it.:  10.6
      thresh= 3.168E-09 alpha_mix =  0.700 |ddv_scf|^2 =  6.223E-18

     End of self-consistent calculation

     Convergence has been achieved 


     Representation #   5 mode #   5

     Self-consistent Calculation

      iter #   1 total cpu time :  4377.9 secs   av.it.:   6.1
      thresh= 1.000E-02 alpha_mix =  0.700 |ddv_scf|^2 =  3.180E-07

      iter #   2 total cpu time :  4396.0 secs   av.it.:  10.5
      thresh= 5.640E-05 alpha_mix =  0.700 |ddv_scf|^2 =  2.580E-08

      iter #   3 total cpu time :  4426.2 secs   av.it.:  10.4
      thresh= 1.606E-05 alpha_mix =  0.700 |ddv_scf|^2 =  1.991E-09

      iter #   4 total cpu time :  4446.4 secs   av.it.:  10.2
      thresh= 4.462E-06 alpha_mix =  0.700 |ddv_scf|^2 =  1.262E-12

      iter #   5 total cpu time :  4468.6 secs   av.it.:  10.2
      thresh= 1.124E-07 alpha_mix =  0.700 |ddv_scf|^2 =  6.388E-14

      iter #   6 total cpu time :  4491.1 secs   av.it.:   9.7
      thresh= 2.527E-08 alpha_mix =  0.700 |ddv_scf|^2 =  1.065E-16

      iter #   7 total cpu time :  4505.1 secs   av.it.:  10.3
      thresh= 1.032E-09 alpha_mix =  0.700 |ddv_scf|^2 =  5.287E-18

     End of self-consistent calculation

     Convergence has been achieved 


     Representation #   6 mode #   6

     Self-consistent Calculation

      iter #   1 total cpu time :  4527.3 secs   av.it.:   6.1
      thresh= 1.000E-02 alpha_mix =  0.700 |ddv_scf|^2 =  3.180E-07

      iter #   2 total cpu time :  4546.5 secs   av.it.:  10.5
      thresh= 5.640E-05 alpha_mix =  0.700 |ddv_scf|^2 =  2.580E-08

      iter #   3 total cpu time :  4575.1 secs   av.it.:  10.4
      thresh= 1.606E-05 alpha_mix =  0.700 |ddv_scf|^2 =  1.991E-09

      iter #   4 total cpu time :  4596.6 secs   av.it.:  10.2
      thresh= 4.462E-06 alpha_mix =  0.700 |ddv_scf|^2 =  1.262E-12

      iter #   5 total cpu time :  4618.6 secs   av.it.:  10.2
      thresh= 1.124E-07 alpha_mix =  0.700 |ddv_scf|^2 =  6.388E-14

      iter #   6 total cpu time :  4639.9 secs   av.it.:   9.7
      thresh= 2.527E-08 alpha_mix =  0.700 |ddv_scf|^2 =  1.065E-16

      iter #   7 total cpu time :  4655.3 secs   av.it.:  10.3
      thresh= 1.032E-09 alpha_mix =  0.700 |ddv_scf|^2 =  5.287E-18

     End of self-consistent calculation

     Convergence has been achieved 
 
     Number of q in the star =    6
     List of q in the star:
          1   0.000000000   0.384900179   0.000000000
          2   0.000000000  -0.384900179   0.000000000
          3  -0.333333333   0.192450090   0.000000000
          4  -0.333333333  -0.192450090   0.000000000
          5   0.333333333  -0.192450090   0.000000000
          6   0.333333333   0.192450090   0.000000000

     Diagonalizing the dynamical matrix

     q = (    0.000000000   0.384900179   0.000000000 ) 

 **************************************************************************
     freq (    1) =       8.240298 [THz] =     274.866768 [cm-1]
     freq (    2) =      16.589191 [THz] =     553.355837 [cm-1]
     freq (    3) =      23.034322 [THz] =     768.342265 [cm-1]
     freq (    4) =      30.075546 [THz] =    1003.212215 [cm-1]
     freq (    5) =      42.718148 [THz] =    1424.924022 [cm-1]
     freq (    6) =      45.959766 [THz] =    1533.052760 [cm-1]
 **************************************************************************

     Mode symmetry, C_2v (mm2)  point group:

     freq (   1-   1) =        274.9  [cm-1]   --> B_2  D_4  S_4      
     freq (   2-   2) =        553.4  [cm-1]   --> B_1  D_3  S_3      
     freq (   3-   3) =        768.3  [cm-1]   --> B_2  D_4  S_4      
     freq (   4-   4) =       1003.2  [cm-1]   --> A_1  D_1  S_1      
     freq (   5-   5) =       1424.9  [cm-1]   --> B_1  D_3  S_3      
     freq (   6-   6) =       1533.1  [cm-1]   --> A_1  D_1  S_1      

     Calculation of q =    0.0000000   0.4811252   0.0000000
 
     Parallelization info
     --------------------
     sticks:   dense  smooth     PW     G-vecs:    dense   smooth      PW
     Min         360     237     81                63148    34335    6845
     Max         361     238     82                63163    34358    6858
     Sum         721     475    163               126311    68693   13703
 
     Using Slab Decomposition
 

     Title: 
     Phonons                                                                    


     bravais-lattice index     =            4
     lattice parameter (alat)  =       4.6623  a.u.
     unit-cell volume          =     711.4836 (a.u.)^3
     number of atoms/cell      =            2
     number of atomic types    =            1
     number of electrons       =         8.00
     number of Kohn-Sham states=            8
     kinetic-energy cutoff     =      80.0000  Ry
     charge density cutoff     =     480.0000  Ry
     Exchange-correlation= PBE
                           (   1   4   3   4   0   0   0)

     celldm(1)=   4.662327  celldm(2)=   0.000000  celldm(3)=   8.106365
     celldm(4)=   0.000000  celldm(5)=   0.000000  celldm(6)=   0.000000

     crystal axes: (cart. coord. in units of alat)
               a(1) = (   1.000000   0.000000   0.000000 )  
               a(2) = (  -0.500000   0.866025   0.000000 )  
               a(3) = (   0.000000   0.000000   8.106365 )  

     reciprocal axes: (cart. coord. in units 2 pi/alat)
               b(1) = (  1.000000  0.577350  0.000000 )  
               b(2) = (  0.000000  1.154701  0.000000 )  
               b(3) = (  0.000000  0.000000  0.123360 )  

Write cell and positions for Wanner90.x
begin unit_cell_cart
Bohr
        4.6623268   0.0000000   0.0000000
       -2.3311634   4.0376934   0.0000000
        0.0000000   0.0000000  37.7945225
end unit_cell_cart

begin atoms_cart
Bohr
        C          -0.0000000   2.6917956  18.8972612
        C           2.3311634   1.3458978  18.8972612
end atoms_cart

     PseudoPot. # 1 for C  read from file:
     ./pseudo/C.pbe-n-kjpaw_psl.1.0.0.UPF
     MD5 check sum: 6fec8efd722f5d988670a8dc528584a2
     Pseudo is Projector augmented-wave + core cor, Zval =  4.0
     Generated using "atomic" code by A. Dal Corso  v.5.1.2
     Shape of augmentation charge: PSQ
     Using radial grid of 1073 points,  4 beta functions with: 
                l(1) =   0
                l(2) =   0
                l(3) =   1
                l(4) =   1
     Q(r) pseudized with 0 coefficients 


     atomic species   valence    mass     pseudopotential
        C              4.00    12.01070     C ( 1.00)

     24 Sym. Ops., with inversion, found



   Cartesian axes

     site n.     atom                  positions (alat units)
         1           C   tau(   1) = (  -0.0000000   0.5773503   4.0531825  )
         2           C   tau(   2) = (   0.5000000   0.2886751   4.0531825  )

     number of k points=  1332  Methfessel-Paxton smearing, width (Ry)=  0.0100

     Number of k-points >= 100: set verbosity='high' to print them.

     Dense  grid:   126311 G-vectors     FFT dimensions: (  36,  36, 270)

     Smooth grid:    68693 G-vectors     FFT dimensions: (  27,  27, 216)

     Estimated max dynamical RAM per process >      28.82 MB

     Estimated total dynamical RAM >     806.95 MB

     The potential is recalculated from file :
     ./_ph0/graphene.q_6/graphene.save/charge-density


     negative rho (up, down):  1.103E-04 0.000E+00
     Starting wfcs are    8 atomic wfcs
     Checking if some PAW data can be deallocated... 

     Band Structure Calculation
     Davidson diagonalization with overlap

     ethr =  1.25E-10,  avg # of iterations = 28.0

     total cpu time spent up to now is      476.6 secs

     End of band structure calculation

     Number of k-points >= 100: set verbosity='high' to print the bands.

     the Fermi energy is    -2.3538 ev

     Writing config to output data dir ./_ph0/graphene.q_6/graphene.save/

     Phonons                                                                    

     bravais-lattice index     =            4
     lattice parameter (alat)  =       4.6623  a.u.
     unit-cell volume          =     711.4836 (a.u.)^3
     number of atoms/cell      =            2
     number of atomic types    =            1
     kinetic-energy cut-off    =      80.0000  Ry
     charge density cut-off    =     480.0000  Ry
     convergence threshold     =      1.0E-16
     beta                      =       0.7000
     number of iterations used =            4
[...]
          3   0.250000000  -0.529237747   0.000000000
          4  -0.250000000  -0.529237747   0.000000000
          5   0.333333333  -0.481125224   0.000000000
          6  -0.583333333  -0.048112522   0.000000000
          7  -0.583333333   0.048112522   0.000000000
          8  -0.333333333   0.481125224   0.000000000
          9   0.583333333   0.048112522   0.000000000
         10  -0.333333333  -0.481125224   0.000000000
         11   0.583333333  -0.048112522   0.000000000
         12  -0.250000000   0.529237747   0.000000000

     Diagonalizing the dynamical matrix

     q = (    0.250000000   0.529237747   0.000000000 ) 

 **************************************************************************
     freq (    1) =      14.083990 [THz] =     469.791333 [cm-1]
     freq (    2) =      18.065934 [THz] =     602.614678 [cm-1]
     freq (    3) =      27.484297 [THz] =     916.777463 [cm-1]
     freq (    4) =      35.351290 [THz] =    1179.192095 [cm-1]
     freq (    5) =      39.081435 [THz] =    1303.616353 [cm-1]
     freq (    6) =      40.004388 [THz] =    1334.402764 [cm-1]
 **************************************************************************

     Mode symmetry, C_s (m)     point group:

     freq (   1-   1) =        469.8  [cm-1]   --> A''                
     freq (   2-   2) =        602.6  [cm-1]   --> A''                
     freq (   3-   3) =        916.8  [cm-1]   --> A'                 
     freq (   4-   4) =       1179.2  [cm-1]   --> A'                 
     freq (   5-   5) =       1303.6  [cm-1]   --> A'                 
     freq (   6-   6) =       1334.4  [cm-1]   --> A'                 

     Calculation of q =    0.3333333   0.5773503   0.0000000
 
     Parallelization info
     --------------------
     sticks:   dense  smooth     PW     G-vecs:    dense   smooth      PW
     Min         360     237     81                63148    34335    7355
     Max         361     238     82                63163    34358    7384
     Sum         721     475    163               126311    68693   14739
 
     Using Slab Decomposition
 

     Title: 
     Phonons                                                                    


     bravais-lattice index     =            4
     lattice parameter (alat)  =       4.6623  a.u.
     unit-cell volume          =     711.4836 (a.u.)^3
     number of atoms/cell      =            2
     number of atomic types    =            1
     number of electrons       =         8.00
     number of Kohn-Sham states=            8
     kinetic-energy cutoff     =      80.0000  Ry
     charge density cutoff     =     480.0000  Ry
     Exchange-correlation= PBE
                           (   1   4   3   4   0   0   0)

     celldm(1)=   4.662327  celldm(2)=   0.000000  celldm(3)=   8.106365
     celldm(4)=   0.000000  celldm(5)=   0.000000  celldm(6)=   0.000000

     crystal axes: (cart. coord. in units of alat)
               a(1) = (   1.000000   0.000000   0.000000 )  
               a(2) = (  -0.500000   0.866025   0.000000 )  
               a(3) = (   0.000000   0.000000   8.106365 )  

     reciprocal axes: (cart. coord. in units 2 pi/alat)
               b(1) = (  1.000000  0.577350  0.000000 )  
               b(2) = (  0.000000  1.154701  0.000000 )  
               b(3) = (  0.000000  0.000000  0.123360 )  

Write cell and positions for Wanner90.x
begin unit_cell_cart
Bohr
        4.6623268   0.0000000   0.0000000
       -2.3311634   4.0376934   0.0000000
        0.0000000   0.0000000  37.7945225
end unit_cell_cart

begin atoms_cart
Bohr
        C          -0.0000000   2.6917956  18.8972612
        C           2.3311634   1.3458978  18.8972612
end atoms_cart

     PseudoPot. # 1 for C  read from file:
     ./pseudo/C.pbe-n-kjpaw_psl.1.0.0.UPF
     MD5 check sum: 6fec8efd722f5d988670a8dc528584a2
     Pseudo is Projector augmented-wave + core cor, Zval =  4.0
     Generated using "atomic" code by A. Dal Corso  v.5.1.2
     Shape of augmentation charge: PSQ
     Using radial grid of 1073 points,  4 beta functions with: 
                l(1) =   0
                l(2) =   0
                l(3) =   1
                l(4) =   1
     Q(r) pseudized with 0 coefficients 


     atomic species   valence    mass     pseudopotential
        C              4.00    12.01070     C ( 1.00)

     24 Sym. Ops., with inversion, found



   Cartesian axes

     site n.     atom                  positions (alat units)
         1           C   tau(   1) = (  -0.0000000   0.5773503   4.0531825  )
         2           C   tau(   2) = (   0.5000000   0.2886751   4.0531825  )

     number of k points=   470  Methfessel-Paxton smearing, width (Ry)=  0.0100

     Number of k-points >= 100: set verbosity='high' to print them.

     Dense  grid:   126311 G-vectors     FFT dimensions: (  36,  36, 270)

     Smooth grid:    68693 G-vectors     FFT dimensions: (  27,  27, 216)

     Estimated max dynamical RAM per process >      28.83 MB

     Estimated total dynamical RAM >     807.11 MB

     The potential is recalculated from file :
     ./_ph0/graphene.q_19/graphene.save/charge-density


     negative rho (up, down):  1.103E-04 0.000E+00
     Starting wfcs are    8 atomic wfcs
     Checking if some PAW data can be deallocated... 

     Band Structure Calculation
     Davidson diagonalization with overlap

     ethr =  1.25E-10,  avg # of iterations = 27.6

     total cpu time spent up to now is     2184.9 secs

     End of band structure calculation

     Number of k-points >= 100: set verbosity='high' to print the bands.

     the Fermi energy is    -2.3538 ev

     Writing config to output data dir ./_ph0/graphene.q_19/graphene.save/

     Phonons                                                                    

     bravais-lattice index     =            4
     lattice parameter (alat)  =       4.6623  a.u.
     unit-cell volume          =     711.4836 (a.u.)^3
     number of atoms/cell      =            2
     number of atomic types    =            1
     kinetic-energy cut-off    =      80.0000  Ry
     charge density cut-off    =     480.0000  Ry
     convergence threshold     =      1.0E-16
     beta                      =       0.7000
     number of iterations used =            4
     Exchange-correlation= PBE
                           (   1   4   3   4   0   0   0)


     celldm(1)=    4.66233  celldm(2)=    0.00000  celldm(3)=    8.10636
     celldm(4)=    0.00000  celldm(5)=    0.00000  celldm(6)=    0.00000

     crystal axes: (cart. coord. in units of alat)
               a(1) = (  1.0000  0.0000  0.0000 )  
               a(2) = ( -0.5000  0.8660  0.0000 )  
               a(3) = (  0.0000  0.0000  8.1064 )  

     reciprocal axes: (cart. coord. in units 2 pi/alat)
               b(1) = (  1.0000  0.5774  0.0000 )  
               b(2) = (  0.0000  1.1547  0.0000 )  
               b(3) = (  0.0000  0.0000  0.1234 )  


     Atoms inside the unit cell: 

     Cartesian axes

     site n.  atom      mass           positions (alat units)
        1     C   12.0107   tau(    1) = (   -0.00000    0.57735    4.05318  )
        2     C   12.0107   tau(    2) = (    0.50000    0.28868    4.05318  )

     Computing dynamical matrix for 
                    q = (   0.3333333   0.5773503   0.0000000 )
 
     12 Sym.Ops. (no q -> -q+G )


     G cutoff =  264.2938  (  63163 G-vectors)     FFT grid: ( 36, 36,270)
     G cutoff =  176.1958  (  34335 G-vectors)  smooth grid: ( 27, 27,216)

     number of k points=   470  Methfessel-Paxton smearing, width (Ry)=  0.0100

     PseudoPot. # 1 for C  read from file:
     ./pseudo/C.pbe-n-kjpaw_psl.1.0.0.UPF
     MD5 check sum: 6fec8efd722f5d988670a8dc528584a2
     Pseudo is Projector augmented-wave + core cor, Zval =  4.0
     Generated using "atomic" code by A. Dal Corso  v.5.1.2
     Shape of augmentation charge: PSQ
     Using radial grid of 1073 points,  4 beta functions with: 
                l(1) =   0
                l(2) =   0
                l(3) =   1
                l(4) =   1
     Q(r) pseudized with 0 coefficients 


     Mode symmetry, D_3h (-62m) point group:


     Atomic displacements:
     There are    4 irreducible representations

     Representation     1      1 modes -  To be done

     Representation     2      1 modes -  To be done

     Representation     3      2 modes -  To be done

     Representation     4      2 modes -  To be done



     Alpha used in Ewald sum =   2.8000

     negative rho (up, down):  1.103E-04 0.000E+00
     PHONON       :      4h24m CPU      6h28m WALL



     Representation #   1 mode #   1

     Self-consistent Calculation

      iter #   1 total cpu time : 23320.9 secs   av.it.:   5.9
      thresh= 1.000E-02 alpha_mix =  0.700 |ddv_scf|^2 =  8.142E-07

      iter #   2 total cpu time : 23330.9 secs   av.it.:  10.5
      thresh= 9.023E-05 alpha_mix =  0.700 |ddv_scf|^2 =  9.601E-08

      iter #   3 total cpu time : 23342.5 secs   av.it.:  10.5
      thresh= 3.099E-05 alpha_mix =  0.700 |ddv_scf|^2 =  6.102E-09

      iter #   4 total cpu time : 23356.0 secs   av.it.:   9.6
      thresh= 7.812E-06 alpha_mix =  0.700 |ddv_scf|^2 =  1.038E-12

      iter #   5 total cpu time : 23367.3 secs   av.it.:   9.9
      thresh= 1.019E-07 alpha_mix =  0.700 |ddv_scf|^2 =  1.660E-14

      iter #   6 total cpu time : 23377.2 secs   av.it.:   9.2
      thresh= 1.288E-08 alpha_mix =  0.700 |ddv_scf|^2 =  1.389E-16

      iter #   7 total cpu time : 23385.5 secs   av.it.:  10.7
      thresh= 1.178E-09 alpha_mix =  0.700 |ddv_scf|^2 =  7.599E-19

     End of self-consistent calculation

     Convergence has been achieved 


     Representation #   2 mode #   2

     Self-consistent Calculation

      iter #   1 total cpu time : 23399.0 secs   av.it.:   4.8
      thresh= 1.000E-02 alpha_mix =  0.700 |ddv_scf|^2 =  3.074E-07

      iter #   2 total cpu time : 23408.8 secs   av.it.:   7.6
      thresh= 5.544E-05 alpha_mix =  0.700 |ddv_scf|^2 =  2.755E-08

      iter #   3 total cpu time : 23418.1 secs   av.it.:   6.9
      thresh= 1.660E-05 alpha_mix =  0.700 |ddv_scf|^2 =  4.253E-12

      iter #   4 total cpu time : 23431.3 secs   av.it.:   9.0
      thresh= 2.062E-07 alpha_mix =  0.700 |ddv_scf|^2 =  1.852E-14

      iter #   5 total cpu time : 23441.7 secs   av.it.:   8.7
      thresh= 1.361E-08 alpha_mix =  0.700 |ddv_scf|^2 =  1.986E-16

      iter #   6 total cpu time : 23452.2 secs   av.it.:  10.3
      thresh= 1.409E-09 alpha_mix =  0.700 |ddv_scf|^2 =  5.988E-19

     End of self-consistent calculation

     Convergence has been achieved 


     Representation #   3 modes #   3   4

     Self-consistent Calculation

      iter #   1 total cpu time : 23473.0 secs   av.it.:   6.1
      thresh= 1.000E-02 alpha_mix =  0.700 |ddv_scf|^2 =  2.298E-07

      iter #   2 total cpu time : 23493.4 secs   av.it.:  11.6
      thresh= 4.793E-05 alpha_mix =  0.700 |ddv_scf|^2 =  2.044E-07

      iter #   3 total cpu time : 23514.6 secs   av.it.:  11.3
      thresh= 4.521E-05 alpha_mix =  0.700 |ddv_scf|^2 =  6.652E-09

      iter #   4 total cpu time : 23536.9 secs   av.it.:  10.9
      thresh= 8.156E-06 alpha_mix =  0.700 |ddv_scf|^2 =  1.053E-11

      iter #   5 total cpu time : 23556.6 secs   av.it.:  11.0
      thresh= 3.245E-07 alpha_mix =  0.700 |ddv_scf|^2 =  2.908E-14

      iter #   6 total cpu time : 23577.9 secs   av.it.:  10.1
      thresh= 1.705E-08 alpha_mix =  0.700 |ddv_scf|^2 =  2.597E-16

      iter #   7 total cpu time : 23592.0 secs   av.it.:  11.0
      thresh= 1.612E-09 alpha_mix =  0.700 |ddv_scf|^2 =  6.030E-18

     End of self-consistent calculation

     Convergence has been achieved 


     Representation #   4 modes #   5   6

     Self-consistent Calculation

      iter #   1 total cpu time : 23615.2 secs   av.it.:   6.0
      thresh= 1.000E-02 alpha_mix =  0.700 |ddv_scf|^2 =  1.208E-07

      iter #   2 total cpu time : 23635.7 secs   av.it.:  10.6
      thresh= 3.476E-05 alpha_mix =  0.700 |ddv_scf|^2 =  1.008E-08

      iter #   3 total cpu time : 23661.0 secs   av.it.:   9.7
      thresh= 1.004E-05 alpha_mix =  0.700 |ddv_scf|^2 =  3.876E-11

      iter #   4 total cpu time : 23682.9 secs   av.it.:  10.9
      thresh= 6.226E-07 alpha_mix =  0.700 |ddv_scf|^2 =  1.632E-13

      iter #   5 total cpu time : 23697.6 secs   av.it.:  10.4
      thresh= 4.040E-08 alpha_mix =  0.700 |ddv_scf|^2 =  6.178E-17

     End of self-consistent calculation

     Convergence has been achieved 
 
     Number of q in the star =    2
     List of q in the star:
          1   0.333333333   0.577350269   0.000000000
          2  -0.333333333   0.577350269   0.000000000

     Diagonalizing the dynamical matrix

     q = (    0.333333333   0.577350269   0.000000000 ) 

 **************************************************************************
     freq (    1) =      16.025878 [THz] =     534.565759 [cm-1]
     freq (    2) =      16.025878 [THz] =     534.565759 [cm-1]
     freq (    3) =      29.774575 [THz] =     993.172903 [cm-1]
     freq (    4) =      36.416899 [THz] =    1214.736991 [cm-1]
     freq (    5) =      36.416899 [THz] =    1214.736991 [cm-1]
     freq (    6) =      37.691894 [THz] =    1257.266261 [cm-1]
 **************************************************************************

     Mode symmetry, D_3h (-62m) point group:

     freq (   1-   2) =        534.6  [cm-1]   --> E''                
     freq (   3-   3) =        993.2  [cm-1]   --> A'_2               
     freq (   4-   5) =       1214.7  [cm-1]   --> E'                 
     freq (   6-   6) =       1257.3  [cm-1]   --> A'_1               
 
     init_run     :     36.29s CPU     51.12s WALL (      18 calls)
     electrons    :   1770.01s CPU   2092.60s WALL (      18 calls)

     Called by init_run:
     wfcinit      :      0.01s CPU      0.92s WALL (      18 calls)
     potinit      :     18.80s CPU     26.88s WALL (      18 calls)
     hinit0       :      3.47s CPU      3.52s WALL (      18 calls)

     Called by electrons:
     c_bands      :   1769.11s CPU   2091.47s WALL (      18 calls)
     v_of_rho     :      4.00s CPU      7.06s WALL (      19 calls)
     newd         :      2.34s CPU      2.51s WALL (      19 calls)
     PAW_pot      :      7.93s CPU      9.92s WALL (      19 calls)

     Called by c_bands:
     init_us_2    :     78.04s CPU    112.15s WALL (   74655 calls)
     init_us_2:cp :     77.73s CPU    111.75s WALL (   74655 calls)
     cegterg      :    888.82s CPU   1076.43s WALL (    4418 calls)

     Called by *egterg:
     cdiaghg      :     15.90s CPU     18.74s WALL (   63998 calls)
     h_psi        :   5977.70s CPU   6810.67s WALL (  684833 calls)
     s_psi        :    184.55s CPU    206.17s WALL ( 1355877 calls)
     g_psi        :      9.21s CPU     11.28s WALL (   61748 calls)

     Called by h_psi:
     h_psi:calbec :    425.41s CPU    457.80s WALL (  684833 calls)
     vloc_psi     :   5308.33s CPU   6089.15s WALL (  684833 calls)
     add_vuspsi   :    190.92s CPU    206.27s WALL (  684833 calls)

     General routines
     calbec       :    636.16s CPU    697.15s WALL ( 1460444 calls)
     fft          :    199.39s CPU    245.44s WALL (   16410 calls)
     ffts         :     28.50s CPU     53.75s WALL (    9635 calls)
     fftw         :   4842.94s CPU   5782.90s WALL ( 5900590 calls)
     interpolate  :     47.78s CPU     84.35s WALL (    1891 calls)
     davcio       :     54.42s CPU   1266.55s WALL (  303395 calls)
 
     Parallel routines
 
     PHONON       :      4h28m CPU      6h35m WALL

     INITIALIZATION: 
     phq_setup    :     10.70s CPU     24.25s WALL (      19 calls)
     phq_init     :    429.31s CPU    530.52s WALL (      19 calls)
 
     phq_init     :    429.31s CPU    530.52s WALL (      19 calls)
     set_drhoc    :     23.05s CPU     29.15s WALL (      57 calls)
     init_vloc    :      0.55s CPU      0.55s WALL (      19 calls)
     init_us_1    :      1.67s CPU      1.69s WALL (      19 calls)
     init_us_2    :     78.04s CPU    112.15s WALL (   74655 calls)
     newd         :      2.34s CPU      2.51s WALL (      19 calls)
     dvanqq       :    138.79s CPU    166.03s WALL (      19 calls)
     drho         :    231.76s CPU    278.30s WALL (      19 calls)
 
     DYNAMICAL MATRIX:
     dynmat0      :     39.27s CPU     58.37s WALL (      19 calls)
     phqscf       :  13847.61s CPU  20845.22s WALL (      19 calls)
     dynmatrix    :      3.49s CPU     13.69s WALL (      19 calls)
 
     phqscf       :  13847.61s CPU  20845.22s WALL (      19 calls)
     solve_linter :  13740.21s CPU  20538.06s WALL (     110 calls)
     drhodv       :     86.89s CPU    102.85s WALL (     110 calls)
 
     dynmat0      :     39.27s CPU     58.37s WALL (      19 calls)
     dynmat_us    :     10.42s CPU     14.28s WALL (      19 calls)
     d2ionq       :      0.38s CPU      0.39s WALL (      19 calls)
     dynmatcc     :     20.70s CPU     23.01s WALL (      19 calls)
 
     dynmat_us    :     10.42s CPU     14.28s WALL (      19 calls)
     addusdynmat  :      0.00s CPU      0.00s WALL (      19 calls)
 
     phqscf       :  13847.61s CPU  20845.22s WALL (      19 calls)
     solve_linter :  13740.21s CPU  20538.06s WALL (     110 calls)
 
     solve_linter :  13740.21s CPU  20538.06s WALL (     110 calls)
     dvqpsi_us    :    186.54s CPU    226.23s WALL (    6810 calls)
     sth_kernel   :   9968.36s CPU  12132.19s WALL (     846 calls)
     apply_dpot_b :    514.33s CPU    635.53s WALL (   47817 calls)
     ortho        :     72.35s CPU     84.15s WALL (   54627 calls)
     cgsolve      :   6461.41s CPU   7177.77s WALL (   54627 calls)
     incdrhoscf   :   1097.48s CPU   1327.39s WALL (   54627 calls)
     addusddens   :    321.30s CPU    398.00s WALL (     956 calls)
     dv_of_drho   :    261.83s CPU    298.40s WALL (     868 calls)
     mix_pot      :    135.73s CPU   2596.52s WALL (     846 calls)
     ef_shift     :      2.29s CPU      3.80s WALL (      22 calls)
     ef_shift_wfc :      0.00s CPU      0.02s WALL (       4 calls)
     localdos     :      2.86s CPU      3.13s WALL (       4 calls)
     psymdvscf    :    134.55s CPU    164.25s WALL (     846 calls)
     newdq        :    217.80s CPU    256.92s WALL (     846 calls)
     adddvscf     :     50.55s CPU     55.48s WALL (   47817 calls)
     drhodvus     :     12.09s CPU     20.55s WALL (     110 calls)
 
     dvqpsi_us    :    186.54s CPU    226.23s WALL (    6810 calls)
     dvqpsi_us_on :     14.31s CPU     15.29s WALL (    6810 calls)
 
     cgsolve      :   6461.41s CPU   7177.77s WALL (   54627 calls)
     ch_psi       :   6060.07s CPU   6744.01s WALL (  616417 calls)
 
     ch_psi       :   6060.07s CPU   6744.01s WALL (  616417 calls)
     h_psi        :   5977.70s CPU   6810.67s WALL (  684833 calls)
     last         :    540.74s CPU    586.66s WALL (  616417 calls)
 
     h_psi        :   5977.70s CPU   6810.67s WALL (  684833 calls)
     add_vuspsi   :    190.92s CPU    206.27s WALL (  684833 calls)
 
     incdrhoscf   :   1097.48s CPU   1327.39s WALL (   54627 calls)
     addusdbec    :     63.88s CPU     67.53s WALL (   61437 calls)
 
     drhodvus     :     12.09s CPU     20.55s WALL (     110 calls)
 
      General routines
     calbec       :    636.16s CPU    697.15s WALL ( 1460444 calls)
     fft          :    199.39s CPU    245.44s WALL (   16410 calls)
     ffts         :     28.50s CPU     53.75s WALL (    9635 calls)
     fftw         :   4842.94s CPU   5782.90s WALL ( 5900590 calls)
     davcio       :     54.42s CPU   1266.55s WALL (  303395 calls)
     write_rec    :    157.62s CPU   2070.97s WALL (     956 calls)
 
 
     PHONON       :      4h28m CPU      6h35m WALL

 
   This run was terminated on:  20:11: 8  25Jun2022            

=------------------------------------------------------------------------------=
   JOB DONE.
=------------------------------------------------------------------------------=
