
     Program Q2R v.7.0 starts on 25Jun2022 at 20:11:14 

     This program is part of the open-source Quantum ESPRESSO suite
     for quantum simulation of materials; please cite
         "P. Giannozzi et al., J. Phys.:Condens. Matter 21 395502 (2009);
         "P. Giannozzi et al., J. Phys.:Condens. Matter 29 465901 (2017);
         "P. Giannozzi et al., J. Chem. Phys. 152 154105 (2020);
          URL http://www.quantum-espresso.org", 
     in publications or presentations arising from this work. More details at
     http://www.quantum-espresso.org/quote

     Parallel version (MPI & OpenMP), running on      28 processor cores
     Number of MPI processes:                28
     Threads/MPI process:                     1

     MPI processes distributed on     1 nodes
     K-points division:     npool     =      14
     R & G space division:  proc/nbgrp/npool/nimage =       2
     55428 MiB available memory on the printing compute node when the environment starts
 

     reading grid info from file graphene.dyn0    
  reading force constants from file graphene.dyn1
  Dielectric Tensor not found
  nqs=            1
 q=   0.00000000  0.00000000  0.00000000
  reading force constants from file graphene.dyn2
  nqs=            6
 q=   0.00000000  0.09622504  0.00000000
 q=   0.00000000 -0.09622504  0.00000000
 q=  -0.08333333  0.04811252  0.00000000
 q=  -0.08333333 -0.04811252  0.00000000
 q=   0.08333333 -0.04811252  0.00000000
 q=   0.08333333  0.04811252  0.00000000
  reading force constants from file graphene.dyn3
  nqs=            6
 q=   0.00000000  0.19245009  0.00000000
 q=   0.00000000 -0.19245009  0.00000000
 q=  -0.16666667  0.09622504  0.00000000
 q=  -0.16666667 -0.09622504  0.00000000
 q=   0.16666667 -0.09622504  0.00000000
 q=   0.16666667  0.09622504  0.00000000
  reading force constants from file graphene.dyn4
  nqs=            6
 q=   0.00000000  0.28867514  0.00000000
 q=   0.00000000 -0.28867514  0.00000000
 q=  -0.25000000  0.14433757  0.00000000
 q=  -0.25000000 -0.14433757  0.00000000
 q=   0.25000000 -0.14433757  0.00000000
 q=   0.25000000  0.14433757  0.00000000
  reading force constants from file graphene.dyn5
  nqs=            6
 q=   0.00000000  0.38490018  0.00000000
 q=   0.00000000 -0.38490018  0.00000000
 q=  -0.33333333  0.19245009  0.00000000
 q=  -0.33333333 -0.19245009  0.00000000
 q=   0.33333333 -0.19245009  0.00000000
 q=   0.33333333  0.19245009  0.00000000
  reading force constants from file graphene.dyn6
  nqs=            6
 q=   0.00000000  0.48112522  0.00000000
 q=   0.00000000 -0.48112522  0.00000000
 q=  -0.41666667  0.24056261  0.00000000
 q=  -0.41666667 -0.24056261  0.00000000
 q=   0.41666667 -0.24056261  0.00000000
 q=   0.41666667  0.24056261  0.00000000
  reading force constants from file graphene.dyn7
  nqs=            3
 q=   0.00000000 -0.57735027  0.00000000
 q=  -0.50000000  0.28867514  0.00000000
 q=   0.50000000  0.28867514  0.00000000
  reading force constants from file graphene.dyn8
  nqs=            6
 q=   0.08333333  0.14433757  0.00000000
 q=   0.08333333 -0.14433757  0.00000000
 q=  -0.08333333 -0.14433757  0.00000000
 q=  -0.16666667  0.00000000  0.00000000
 q=  -0.08333333  0.14433757  0.00000000
 q=   0.16666667  0.00000000  0.00000000
  reading force constants from file graphene.dyn9
  nqs=           12
 q=   0.08333333  0.24056261  0.00000000
 q=   0.16666667  0.19245009  0.00000000
 q=   0.08333333 -0.24056261  0.00000000
 q=  -0.08333333 -0.24056261  0.00000000
 q=   0.16666667 -0.19245009  0.00000000
 q=  -0.25000000 -0.04811252  0.00000000
 q=  -0.25000000  0.04811252  0.00000000
 q=  -0.16666667  0.19245009  0.00000000
 q=   0.25000000  0.04811252  0.00000000
 q=  -0.16666667 -0.19245009  0.00000000
 q=   0.25000000 -0.04811252  0.00000000
 q=  -0.08333333  0.24056261  0.00000000
  reading force constants from file graphene.dyn10
  nqs=           12
 q=   0.08333333  0.33678766  0.00000000
 q=   0.25000000  0.24056261  0.00000000
 q=   0.08333333 -0.33678766  0.00000000
 q=  -0.08333333 -0.33678766  0.00000000
 q=   0.25000000 -0.24056261  0.00000000
 q=  -0.33333333 -0.09622504  0.00000000
 q=  -0.33333333  0.09622504  0.00000000
 q=  -0.25000000  0.24056261  0.00000000
 q=   0.33333333  0.09622504  0.00000000
 q=  -0.25000000 -0.24056261  0.00000000
 q=   0.33333333 -0.09622504  0.00000000
 q=  -0.08333333  0.33678766  0.00000000
  reading force constants from file graphene.dyn11
  nqs=           12
 q=   0.08333333  0.43301270  0.00000000
 q=   0.33333333  0.28867514  0.00000000
 q=   0.08333333 -0.43301270  0.00000000
 q=  -0.08333333 -0.43301270  0.00000000
 q=   0.33333333 -0.28867514  0.00000000
 q=  -0.41666667 -0.14433757  0.00000000
 q=  -0.41666667  0.14433757  0.00000000
 q=  -0.33333333  0.28867514  0.00000000
 q=   0.41666667  0.14433757  0.00000000
 q=  -0.33333333 -0.28867514  0.00000000
 q=   0.41666667 -0.14433757  0.00000000
 q=  -0.08333333  0.43301270  0.00000000
  reading force constants from file graphene.dyn12
  nqs=           12
 q=   0.08333333  0.52923775  0.00000000
 q=   0.41666667  0.33678766  0.00000000
 q=   0.08333333 -0.52923775  0.00000000
 q=  -0.08333333 -0.52923775  0.00000000
 q=   0.41666667 -0.33678766  0.00000000
 q=  -0.50000000 -0.19245009  0.00000000
 q=  -0.50000000  0.19245009  0.00000000
 q=  -0.41666667  0.33678766  0.00000000
 q=   0.50000000  0.19245009  0.00000000
 q=  -0.41666667 -0.33678766  0.00000000
 q=   0.50000000 -0.19245009  0.00000000
 q=  -0.08333333  0.52923775  0.00000000
  reading force constants from file graphene.dyn13
  nqs=            6
 q=   0.16666667  0.28867514  0.00000000
 q=   0.16666667 -0.28867514  0.00000000
 q=  -0.16666667 -0.28867514  0.00000000
 q=  -0.33333333  0.00000000  0.00000000
 q=  -0.16666667  0.28867514  0.00000000
 q=   0.33333333  0.00000000  0.00000000
  reading force constants from file graphene.dyn14
  nqs=           12
 q=   0.16666667  0.38490018  0.00000000
 q=   0.25000000  0.33678766  0.00000000
 q=   0.16666667 -0.38490018  0.00000000
 q=  -0.16666667 -0.38490018  0.00000000
 q=   0.25000000 -0.33678766  0.00000000
 q=  -0.41666667 -0.04811252  0.00000000
 q=  -0.41666667  0.04811252  0.00000000
 q=  -0.25000000  0.33678766  0.00000000
 q=   0.41666667  0.04811252  0.00000000
 q=  -0.25000000 -0.33678766  0.00000000
 q=   0.41666667 -0.04811252  0.00000000
 q=  -0.16666667  0.38490018  0.00000000
  reading force constants from file graphene.dyn15
  nqs=           12
 q=   0.16666667  0.48112522  0.00000000
 q=   0.33333333  0.38490018  0.00000000
 q=   0.16666667 -0.48112522  0.00000000
 q=  -0.16666667 -0.48112522  0.00000000
 q=   0.33333333 -0.38490018  0.00000000
 q=  -0.50000000 -0.09622504  0.00000000
 q=  -0.50000000  0.09622504  0.00000000
 q=  -0.33333333  0.38490018  0.00000000
 q=   0.50000000  0.09622504  0.00000000
 q=  -0.33333333 -0.38490018  0.00000000
 q=   0.50000000 -0.09622504  0.00000000
 q=  -0.16666667  0.48112522  0.00000000
  reading force constants from file graphene.dyn16
  nqs=            6
 q=   0.16666667  0.57735027  0.00000000
 q=   0.41666667  0.43301270  0.00000000
 q=  -0.16666667 -0.57735027  0.00000000
 q=   0.41666667 -0.43301270  0.00000000
 q=  -0.41666667  0.43301270  0.00000000
 q=   0.58333333  0.14433757  0.00000000
  reading force constants from file graphene.dyn17
  nqs=            6
 q=   0.25000000  0.43301270  0.00000000
 q=   0.25000000 -0.43301270  0.00000000
 q=  -0.25000000 -0.43301270  0.00000000
 q=  -0.50000000  0.00000000  0.00000000
 q=  -0.25000000  0.43301270  0.00000000
 q=   0.50000000  0.00000000  0.00000000
  reading force constants from file graphene.dyn18
  nqs=           12
 q=   0.25000000  0.52923775  0.00000000
 q=   0.33333333  0.48112522  0.00000000
 q=   0.25000000 -0.52923775  0.00000000
 q=  -0.25000000 -0.52923775  0.00000000
 q=   0.33333333 -0.48112522  0.00000000
 q=  -0.58333333 -0.04811252  0.00000000
 q=  -0.58333333  0.04811252  0.00000000
 q=  -0.33333333  0.48112522  0.00000000
 q=   0.58333333  0.04811252  0.00000000
 q=  -0.33333333 -0.48112522  0.00000000
 q=   0.58333333 -0.04811252  0.00000000
 q=  -0.25000000  0.52923775  0.00000000
  reading force constants from file graphene.dyn19
  nqs=            2
 q=   0.33333333  0.57735027  0.00000000
 q=  -0.33333333  0.57735027  0.00000000

      q-space grid ok, #points =  144

      fft-check success (sum of imaginary terms < 10^-12)
 
     Q2R          :      0.20s CPU      1.89s WALL

 
   This run was terminated on:  20:11:16  25Jun2022            

=------------------------------------------------------------------------------=
   JOB DONE.
=------------------------------------------------------------------------------=
