
     Program PWSCF v.7.0 starts on 24Jun2022 at 23:28:26 

     This program is part of the open-source Quantum ESPRESSO suite
     for quantum simulation of materials; please cite
         "P. Giannozzi et al., J. Phys.:Condens. Matter 21 395502 (2009);
         "P. Giannozzi et al., J. Phys.:Condens. Matter 29 465901 (2017);
         "P. Giannozzi et al., J. Chem. Phys. 152 154105 (2020);
          URL http://www.quantum-espresso.org", 
     in publications or presentations arising from this work. More details at
     http://www.quantum-espresso.org/quote

     Parallel version (MPI & OpenMP), running on      28 processor cores
     Number of MPI processes:                28
     Threads/MPI process:                     1

     MPI processes distributed on     1 nodes
     K-points division:     npool     =      14
     R & G space division:  proc/nbgrp/npool/nimage =       2
     55312 MiB available memory on the printing compute node when the environment starts
 
     Waiting for input...
     Reading input from standard input

     Current dimensions of program PWSCF are:
     Max number of different atomic species (ntypx) = 10
     Max number of k-points (npk) =  40000
     Max angular momentum in pseudopotentials (lmaxx) =  4
     file C.pbe-n-kjpaw_psl.1.0.0.UPF: wavefunction(s)  2S 2P renormalized

     Subspace diagonalization in iterative solution of the eigenvalue problem:
     a serial algorithm will be used

 
     Parallelization info
     --------------------
     sticks:   dense  smooth     PW     G-vecs:    dense   smooth      PW
     Min         360     237     75                47374    25727    4357
     Max         361     238     76                47383    25752    4366
     Sum         721     475    151                94757    51479    8723
 
     Using Slab Decomposition
 


     bravais-lattice index     =            4
     lattice parameter (alat)  =       4.6623  a.u.
     unit-cell volume          =     533.6125 (a.u.)^3
     number of atoms/cell      =            2
     number of atomic types    =            1
     number of electrons       =         8.00
     number of Kohn-Sham states=            8
     kinetic-energy cutoff     =      80.0000  Ry
     charge density cutoff     =     480.0000  Ry
     scf convergence threshold =      1.0E-12
     mixing beta               =       0.7000
     number of iterations used =            8  plain     mixing
     Exchange-correlation= SLA  PW   PBX  PBC
                           (   1   4   3   4   0   0   0)

     celldm(1)=   4.662326  celldm(2)=   0.000000  celldm(3)=   6.079775
     celldm(4)=   0.000000  celldm(5)=   0.000000  celldm(6)=   0.000000

     crystal axes: (cart. coord. in units of alat)
               a(1) = (   1.000000   0.000000   0.000000 )  
               a(2) = (  -0.500000   0.866025   0.000000 )  
               a(3) = (   0.000000   0.000000   6.079775 )  

     reciprocal axes: (cart. coord. in units 2 pi/alat)
               b(1) = (  1.000000  0.577350  0.000000 )  
               b(2) = (  0.000000  1.154701  0.000000 )  
               b(3) = (  0.000000  0.000000  0.164480 )  

Write cell and positions for Wanner90.x
begin unit_cell_cart
Bohr
        4.6623259   0.0000000   0.0000000
       -2.3311629   4.0376926   0.0000000
        0.0000000   0.0000000  28.3458918
end unit_cell_cart

begin atoms_cart
Bohr
        C          -0.0000000   2.6917951  14.1729459
        C           2.3311629   1.3458975  14.1729459
end atoms_cart

     PseudoPot. # 1 for C  read from file:
     ./pseudo/C.pbe-n-kjpaw_psl.1.0.0.UPF
     MD5 check sum: 6fec8efd722f5d988670a8dc528584a2
     Pseudo is Projector augmented-wave + core cor, Zval =  4.0
     Generated using "atomic" code by A. Dal Corso  v.5.1.2
     Shape of augmentation charge: PSQ
     Using radial grid of 1073 points,  4 beta functions with: 
                l(1) =   0
                l(2) =   0
                l(3) =   1
                l(4) =   1
     Q(r) pseudized with 0 coefficients 


     atomic species   valence    mass     pseudopotential
        C              4.00    12.01070     C ( 1.00)

     24 Sym. Ops., with inversion, found


                                    s                        frac. trans.

      isym =  1     identity                                     

 cryst.   s( 1) = (     1          0          0      )
                  (     0          1          0      )
                  (     0          0          1      )

 cart.    s( 1) = (  1.0000000  0.0000000  0.0000000 )
                  (  0.0000000  1.0000000  0.0000000 )
                  (  0.0000000  0.0000000  1.0000000 )


      isym =  2     180 deg rotation - cart. axis [0,0,1]        

 cryst.   s( 2) = (    -1          0          0      )
                  (     0         -1          0      )
                  (     0          0          1      )

 cart.    s( 2) = ( -1.0000000  0.0000000  0.0000000 )
                  (  0.0000000 -1.0000000  0.0000000 )
                  (  0.0000000  0.0000000  1.0000000 )


      isym =  3     180 deg rotation - cart. axis [0,1,0]        

 cryst.   s( 3) = (    -1          0          0      )
                  (     1          1          0      )
                  (     0          0         -1      )

 cart.    s( 3) = ( -1.0000000  0.0000000  0.0000000 )
                  (  0.0000000  1.0000000  0.0000000 )
                  (  0.0000000  0.0000000 -1.0000000 )


      isym =  4     180 deg rotation - cart. axis [1,0,0]        

 cryst.   s( 4) = (     1          0          0      )
                  (    -1         -1          0      )
                  (     0          0         -1      )

 cart.    s( 4) = (  1.0000000  0.0000000  0.0000000 )
                  (  0.0000000 -1.0000000  0.0000000 )
                  (  0.0000000  0.0000000 -1.0000000 )


      isym =  5      60 deg rotation - cryst. axis [0,0,1]       

 cryst.   s( 5) = (     1          1          0      )
                  (    -1          0          0      )
                  (     0          0          1      )

 cart.    s( 5) = (  0.5000000 -0.8660254  0.0000000 )
                  (  0.8660254  0.5000000  0.0000000 )
                  (  0.0000000  0.0000000  1.0000000 )


      isym =  6      60 deg rotation - cryst. axis [0,0,-1]      

 cryst.   s( 6) = (     0         -1          0      )
                  (     1          1          0      )
                  (     0          0          1      )

 cart.    s( 6) = (  0.5000000  0.8660254  0.0000000 )
                  ( -0.8660254  0.5000000  0.0000000 )
                  (  0.0000000  0.0000000  1.0000000 )


      isym =  7     120 deg rotation - cryst. axis [0,0,1]       

 cryst.   s( 7) = (     0          1          0      )
                  (    -1         -1          0      )
                  (     0          0          1      )

 cart.    s( 7) = ( -0.5000000 -0.8660254  0.0000000 )
                  (  0.8660254 -0.5000000  0.0000000 )
                  (  0.0000000  0.0000000  1.0000000 )


      isym =  8     120 deg rotation - cryst. axis [0,0,-1]      

 cryst.   s( 8) = (    -1         -1          0      )
                  (     1          0          0      )
                  (     0          0          1      )

 cart.    s( 8) = ( -0.5000000  0.8660254  0.0000000 )
                  ( -0.8660254 -0.5000000  0.0000000 )
                  (  0.0000000  0.0000000  1.0000000 )


      isym =  9     180 deg rotation - cryst. axis [1,-1,0]      

 cryst.   s( 9) = (     0         -1          0      )
                  (    -1          0          0      )
                  (     0          0         -1      )

 cart.    s( 9) = (  0.5000000 -0.8660254  0.0000000 )
                  ( -0.8660254 -0.5000000  0.0000000 )
                  (  0.0000000  0.0000000 -1.0000000 )


      isym = 10     180 deg rotation - cryst. axis [2,1,0]       

 cryst.   s(10) = (     1          1          0      )
                  (     0         -1          0      )
                  (     0          0         -1      )

 cart.    s(10) = (  0.5000000  0.8660254  0.0000000 )
                  (  0.8660254 -0.5000000  0.0000000 )
                  (  0.0000000  0.0000000 -1.0000000 )


      isym = 11     180 deg rotation - cryst. axis [0,1,0]       

 cryst.   s(11) = (    -1         -1          0      )
                  (     0          1          0      )
                  (     0          0         -1      )

 cart.    s(11) = ( -0.5000000 -0.8660254  0.0000000 )
                  ( -0.8660254  0.5000000  0.0000000 )
                  (  0.0000000  0.0000000 -1.0000000 )


      isym = 12     180 deg rotation - cryst. axis [1,1,0]       

 cryst.   s(12) = (     0          1          0      )
                  (     1          0          0      )
                  (     0          0         -1      )

 cart.    s(12) = ( -0.5000000  0.8660254  0.0000000 )
                  (  0.8660254  0.5000000  0.0000000 )
                  (  0.0000000  0.0000000 -1.0000000 )


      isym = 13     inversion                                    

 cryst.   s(13) = (    -1          0          0      )
                  (     0         -1          0      )
                  (     0          0         -1      )

 cart.    s(13) = ( -1.0000000  0.0000000  0.0000000 )
                  (  0.0000000 -1.0000000  0.0000000 )
                  (  0.0000000  0.0000000 -1.0000000 )


      isym = 14     inv. 180 deg rotation - cart. axis [0,0,1]   

 cryst.   s(14) = (     1          0          0      )
                  (     0          1          0      )
                  (     0          0         -1      )

 cart.    s(14) = (  1.0000000  0.0000000  0.0000000 )
                  (  0.0000000  1.0000000  0.0000000 )
                  (  0.0000000  0.0000000 -1.0000000 )


      isym = 15     inv. 180 deg rotation - cart. axis [0,1,0]   

 cryst.   s(15) = (     1          0          0      )
                  (    -1         -1          0      )
                  (     0          0          1      )

 cart.    s(15) = (  1.0000000  0.0000000  0.0000000 )
                  (  0.0000000 -1.0000000  0.0000000 )
                  (  0.0000000  0.0000000  1.0000000 )


      isym = 16     inv. 180 deg rotation - cart. axis [1,0,0]   

 cryst.   s(16) = (    -1          0          0      )
                  (     1          1          0      )
                  (     0          0          1      )

 cart.    s(16) = ( -1.0000000  0.0000000  0.0000000 )
                  (  0.0000000  1.0000000  0.0000000 )
                  (  0.0000000  0.0000000  1.0000000 )


      isym = 17     inv.  60 deg rotation - cryst. axis [0,0,1]  

 cryst.   s(17) = (    -1         -1          0      )
                  (     1          0          0      )
                  (     0          0         -1      )

 cart.    s(17) = ( -0.5000000  0.8660254  0.0000000 )
                  ( -0.8660254 -0.5000000  0.0000000 )
                  (  0.0000000  0.0000000 -1.0000000 )


      isym = 18     inv.  60 deg rotation - cryst. axis [0,0,-1] 

 cryst.   s(18) = (     0          1          0      )
                  (    -1         -1          0      )
                  (     0          0         -1      )

 cart.    s(18) = ( -0.5000000 -0.8660254  0.0000000 )
                  (  0.8660254 -0.5000000  0.0000000 )
                  (  0.0000000  0.0000000 -1.0000000 )


      isym = 19     inv. 120 deg rotation - cryst. axis [0,0,1]  

 cryst.   s(19) = (     0         -1          0      )
                  (     1          1          0      )
                  (     0          0         -1      )

 cart.    s(19) = (  0.5000000  0.8660254  0.0000000 )
                  ( -0.8660254  0.5000000  0.0000000 )
                  (  0.0000000  0.0000000 -1.0000000 )


      isym = 20     inv. 120 deg rotation - cryst. axis [0,0,-1] 

 cryst.   s(20) = (     1          1          0      )
                  (    -1          0          0      )
                  (     0          0         -1      )

 cart.    s(20) = (  0.5000000 -0.8660254  0.0000000 )
                  (  0.8660254  0.5000000  0.0000000 )
                  (  0.0000000  0.0000000 -1.0000000 )


      isym = 21     inv. 180 deg rotation - cryst. axis [1,-1,0] 

 cryst.   s(21) = (     0          1          0      )
                  (     1          0          0      )
                  (     0          0          1      )

 cart.    s(21) = ( -0.5000000  0.8660254  0.0000000 )
                  (  0.8660254  0.5000000  0.0000000 )
                  (  0.0000000  0.0000000  1.0000000 )


      isym = 22     inv. 180 deg rotation - cryst. axis [2,1,0]  

 cryst.   s(22) = (    -1         -1          0      )
                  (     0          1          0      )
                  (     0          0          1      )

 cart.    s(22) = ( -0.5000000 -0.8660254  0.0000000 )
                  ( -0.8660254  0.5000000  0.0000000 )
                  (  0.0000000  0.0000000  1.0000000 )


      isym = 23     inv. 180 deg rotation - cryst. axis [0,1,0]  

 cryst.   s(23) = (     1          1          0      )
                  (     0         -1          0      )
                  (     0          0          1      )

 cart.    s(23) = (  0.5000000  0.8660254  0.0000000 )
                  (  0.8660254 -0.5000000  0.0000000 )
                  (  0.0000000  0.0000000  1.0000000 )


      isym = 24     inv. 180 deg rotation - cryst. axis [1,1,0]  

 cryst.   s(24) = (     0         -1          0      )
                  (    -1          0          0      )
                  (     0          0          1      )

 cart.    s(24) = (  0.5000000 -0.8660254  0.0000000 )
                  ( -0.8660254 -0.5000000  0.0000000 )
                  (  0.0000000  0.0000000  1.0000000 )


     point group D_6h(6/mmm)
     there are 12 classes
     the character table:

       E     2C6   2C3   C2    3C2'  3C2'' i     2S3   2S6   s_h   3s_d  3s_v 
A_1g   1.00  1.00  1.00  1.00  1.00  1.00  1.00  1.00  1.00  1.00  1.00  1.00
A_2g   1.00  1.00  1.00  1.00 -1.00 -1.00  1.00  1.00  1.00  1.00 -1.00 -1.00
B_1g   1.00 -1.00  1.00 -1.00  1.00 -1.00  1.00 -1.00  1.00 -1.00  1.00 -1.00
B_2g   1.00 -1.00  1.00 -1.00 -1.00  1.00  1.00 -1.00  1.00 -1.00 -1.00  1.00
E_1g   2.00  1.00 -1.00 -2.00  0.00  0.00  2.00  1.00 -1.00 -2.00  0.00  0.00
E_2g   2.00 -1.00 -1.00  2.00  0.00  0.00  2.00 -1.00 -1.00  2.00  0.00  0.00
A_1u   1.00  1.00  1.00  1.00  1.00  1.00 -1.00 -1.00 -1.00 -1.00 -1.00 -1.00
A_2u   1.00  1.00  1.00  1.00 -1.00 -1.00 -1.00 -1.00 -1.00 -1.00  1.00  1.00
B_1u   1.00 -1.00  1.00 -1.00  1.00 -1.00 -1.00  1.00 -1.00  1.00 -1.00  1.00
B_2u   1.00 -1.00  1.00 -1.00 -1.00  1.00 -1.00  1.00 -1.00  1.00  1.00 -1.00
E_1u   2.00  1.00 -1.00 -2.00  0.00  0.00 -2.00 -1.00  1.00  2.00  0.00  0.00
E_2u   2.00 -1.00 -1.00  2.00  0.00  0.00 -2.00  1.00  1.00 -2.00  0.00  0.00

     the symmetry operations in each class and the name of the first element:

     E        1
          identity                                               
     2C6      5    6
           60 deg rotation - cryst. axis [0,0,1]                 
     2C3      7    8
          120 deg rotation - cryst. axis [0,0,1]                 
     C2       2
          180 deg rotation - cart. axis [0,0,1]                  
     3C2'     4   12   11
          180 deg rotation - cart. axis [1,0,0]                  
     3C2''    3    9   10
          180 deg rotation - cart. axis [0,1,0]                  
     i       13
          inversion                                              
     2S3     17   18
          inv.  60 deg rotation - cryst. axis [0,0,1]            
     2S6     19   20
          inv. 120 deg rotation - cryst. axis [0,0,1]            
     s_h     14
          inv. 180 deg rotation - cart. axis [0,0,1]             
     3s_d    16   24   23
          inv. 180 deg rotation - cart. axis [1,0,0]             
     3s_v    15   21   22
          inv. 180 deg rotation - cart. axis [0,1,0]             

   Cartesian axes

     site n.     atom                  positions (alat units)
         1           C   tau(   1) = (  -0.0000000   0.5773503   3.0398875  )
         2           C   tau(   2) = (   0.5000000   0.2886751   3.0398875  )

   Crystallographic axes

     site n.     atom                  positions (cryst. coord.)
         1           C   tau(   1) = (  0.3333333  0.6666667  0.5000000  )
         2           C   tau(   2) = (  0.6666667  0.3333333  0.5000000  )

     number of k points=   127  Methfessel-Paxton smearing, width (Ry)=  0.0100
                       cart. coord. in units 2pi/alat
        k(    1) = (   0.0000000   0.0000000   0.0000000), wk =   0.0015432
        k(    2) = (   0.0000000   0.0320750   0.0000000), wk =   0.0092593
        k(    3) = (   0.0000000   0.0641500   0.0000000), wk =   0.0092593
        k(    4) = (   0.0000000   0.0962250   0.0000000), wk =   0.0092593
        k(    5) = (   0.0000000   0.1283001   0.0000000), wk =   0.0092593
        k(    6) = (   0.0000000   0.1603751   0.0000000), wk =   0.0092593
        k(    7) = (   0.0000000   0.1924501   0.0000000), wk =   0.0092593
        k(    8) = (   0.0000000   0.2245251   0.0000000), wk =   0.0092593
        k(    9) = (   0.0000000   0.2566001   0.0000000), wk =   0.0092593
        k(   10) = (   0.0000000   0.2886751   0.0000000), wk =   0.0092593
        k(   11) = (   0.0000000   0.3207501   0.0000000), wk =   0.0092593
        k(   12) = (   0.0000000   0.3528252   0.0000000), wk =   0.0092593
        k(   13) = (   0.0000000   0.3849002   0.0000000), wk =   0.0092593
        k(   14) = (   0.0000000   0.4169752   0.0000000), wk =   0.0092593
        k(   15) = (   0.0000000   0.4490502   0.0000000), wk =   0.0092593
        k(   16) = (   0.0000000   0.4811252   0.0000000), wk =   0.0092593
        k(   17) = (   0.0000000   0.5132002   0.0000000), wk =   0.0092593
        k(   18) = (   0.0000000   0.5452753   0.0000000), wk =   0.0092593
        k(   19) = (   0.0000000  -0.5773503   0.0000000), wk =   0.0046296
        k(   20) = (   0.0277778   0.0481125   0.0000000), wk =   0.0092593
        k(   21) = (   0.0277778   0.0801875   0.0000000), wk =   0.0185185
        k(   22) = (   0.0277778   0.1122626   0.0000000), wk =   0.0185185
        k(   23) = (   0.0277778   0.1443376   0.0000000), wk =   0.0185185
        k(   24) = (   0.0277778   0.1764126   0.0000000), wk =   0.0185185
        k(   25) = (   0.0277778   0.2084876   0.0000000), wk =   0.0185185
        k(   26) = (   0.0277778   0.2405626   0.0000000), wk =   0.0185185
        k(   27) = (   0.0277778   0.2726376   0.0000000), wk =   0.0185185
        k(   28) = (   0.0277778   0.3047126   0.0000000), wk =   0.0185185
        k(   29) = (   0.0277778   0.3367877   0.0000000), wk =   0.0185185
        k(   30) = (   0.0277778   0.3688627   0.0000000), wk =   0.0185185
        k(   31) = (   0.0277778   0.4009377   0.0000000), wk =   0.0185185
        k(   32) = (   0.0277778   0.4330127   0.0000000), wk =   0.0185185
        k(   33) = (   0.0277778   0.4650877   0.0000000), wk =   0.0185185
        k(   34) = (   0.0277778   0.4971627   0.0000000), wk =   0.0185185
        k(   35) = (   0.0277778   0.5292377   0.0000000), wk =   0.0185185
        k(   36) = (   0.0277778   0.5613128   0.0000000), wk =   0.0185185
        k(   37) = (   0.0555556   0.0962250   0.0000000), wk =   0.0092593
        k(   38) = (   0.0555556   0.1283001   0.0000000), wk =   0.0185185
        k(   39) = (   0.0555556   0.1603751   0.0000000), wk =   0.0185185
        k(   40) = (   0.0555556   0.1924501   0.0000000), wk =   0.0185185
        k(   41) = (   0.0555556   0.2245251   0.0000000), wk =   0.0185185
        k(   42) = (   0.0555556   0.2566001   0.0000000), wk =   0.0185185
        k(   43) = (   0.0555556   0.2886751   0.0000000), wk =   0.0185185
        k(   44) = (   0.0555556   0.3207501   0.0000000), wk =   0.0185185
        k(   45) = (   0.0555556   0.3528252   0.0000000), wk =   0.0185185
        k(   46) = (   0.0555556   0.3849002   0.0000000), wk =   0.0185185
        k(   47) = (   0.0555556   0.4169752   0.0000000), wk =   0.0185185
        k(   48) = (   0.0555556   0.4490502   0.0000000), wk =   0.0185185
        k(   49) = (   0.0555556   0.4811252   0.0000000), wk =   0.0185185
        k(   50) = (   0.0555556   0.5132002   0.0000000), wk =   0.0185185
        k(   51) = (   0.0555556   0.5452753   0.0000000), wk =   0.0185185
        k(   52) = (   0.0555556   0.5773503   0.0000000), wk =   0.0092593
        k(   53) = (   0.0833333   0.1443376   0.0000000), wk =   0.0092593
        k(   54) = (   0.0833333   0.1764126   0.0000000), wk =   0.0185185
        k(   55) = (   0.0833333   0.2084876   0.0000000), wk =   0.0185185
        k(   56) = (   0.0833333   0.2405626   0.0000000), wk =   0.0185185
        k(   57) = (   0.0833333   0.2726376   0.0000000), wk =   0.0185185
        k(   58) = (   0.0833333   0.3047126   0.0000000), wk =   0.0185185
        k(   59) = (   0.0833333   0.3367877   0.0000000), wk =   0.0185185
        k(   60) = (   0.0833333   0.3688627   0.0000000), wk =   0.0185185
        k(   61) = (   0.0833333   0.4009377   0.0000000), wk =   0.0185185
        k(   62) = (   0.0833333   0.4330127   0.0000000), wk =   0.0185185
        k(   63) = (   0.0833333   0.4650877   0.0000000), wk =   0.0185185
        k(   64) = (   0.0833333   0.4971627   0.0000000), wk =   0.0185185
        k(   65) = (   0.0833333   0.5292377   0.0000000), wk =   0.0185185
        k(   66) = (   0.0833333   0.5613128   0.0000000), wk =   0.0185185
        k(   67) = (   0.1111111   0.1924501   0.0000000), wk =   0.0092593
        k(   68) = (   0.1111111   0.2245251   0.0000000), wk =   0.0185185
        k(   69) = (   0.1111111   0.2566001   0.0000000), wk =   0.0185185
        k(   70) = (   0.1111111   0.2886751   0.0000000), wk =   0.0185185
        k(   71) = (   0.1111111   0.3207501   0.0000000), wk =   0.0185185
        k(   72) = (   0.1111111   0.3528252   0.0000000), wk =   0.0185185
        k(   73) = (   0.1111111   0.3849002   0.0000000), wk =   0.0185185
        k(   74) = (   0.1111111   0.4169752   0.0000000), wk =   0.0185185
        k(   75) = (   0.1111111   0.4490502   0.0000000), wk =   0.0185185
        k(   76) = (   0.1111111   0.4811252   0.0000000), wk =   0.0185185
        k(   77) = (   0.1111111   0.5132002   0.0000000), wk =   0.0185185
        k(   78) = (   0.1111111   0.5452753   0.0000000), wk =   0.0185185
        k(   79) = (   0.1111111   0.5773503   0.0000000), wk =   0.0092593
        k(   80) = (   0.1388889   0.2405626   0.0000000), wk =   0.0092593
        k(   81) = (   0.1388889   0.2726376   0.0000000), wk =   0.0185185
        k(   82) = (   0.1388889   0.3047126   0.0000000), wk =   0.0185185
        k(   83) = (   0.1388889   0.3367877   0.0000000), wk =   0.0185185
        k(   84) = (   0.1388889   0.3688627   0.0000000), wk =   0.0185185
        k(   85) = (   0.1388889   0.4009377   0.0000000), wk =   0.0185185
        k(   86) = (   0.1388889   0.4330127   0.0000000), wk =   0.0185185
        k(   87) = (   0.1388889   0.4650877   0.0000000), wk =   0.0185185
        k(   88) = (   0.1388889   0.4971627   0.0000000), wk =   0.0185185
        k(   89) = (   0.1388889   0.5292377   0.0000000), wk =   0.0185185
        k(   90) = (   0.1388889   0.5613128   0.0000000), wk =   0.0185185
        k(   91) = (   0.1666667   0.2886751   0.0000000), wk =   0.0092593
        k(   92) = (   0.1666667   0.3207501   0.0000000), wk =   0.0185185
        k(   93) = (   0.1666667   0.3528252   0.0000000), wk =   0.0185185
        k(   94) = (   0.1666667   0.3849002   0.0000000), wk =   0.0185185
        k(   95) = (   0.1666667   0.4169752   0.0000000), wk =   0.0185185
        k(   96) = (   0.1666667   0.4490502   0.0000000), wk =   0.0185185
        k(   97) = (   0.1666667   0.4811252   0.0000000), wk =   0.0185185
        k(   98) = (   0.1666667   0.5132002   0.0000000), wk =   0.0185185
        k(   99) = (   0.1666667   0.5452753   0.0000000), wk =   0.0185185
        k(  100) = (   0.1666667   0.5773503   0.0000000), wk =   0.0092593
        k(  101) = (   0.1944444   0.3367877   0.0000000), wk =   0.0092593
        k(  102) = (   0.1944444   0.3688627   0.0000000), wk =   0.0185185
        k(  103) = (   0.1944444   0.4009377   0.0000000), wk =   0.0185185
        k(  104) = (   0.1944444   0.4330127   0.0000000), wk =   0.0185185
        k(  105) = (   0.1944444   0.4650877   0.0000000), wk =   0.0185185
        k(  106) = (   0.1944444   0.4971627   0.0000000), wk =   0.0185185
        k(  107) = (   0.1944444   0.5292377   0.0000000), wk =   0.0185185
        k(  108) = (   0.1944444   0.5613128   0.0000000), wk =   0.0185185
        k(  109) = (   0.2222222   0.3849002   0.0000000), wk =   0.0092593
        k(  110) = (   0.2222222   0.4169752   0.0000000), wk =   0.0185185
        k(  111) = (   0.2222222   0.4490502   0.0000000), wk =   0.0185185
        k(  112) = (   0.2222222   0.4811252   0.0000000), wk =   0.0185185
        k(  113) = (   0.2222222   0.5132002   0.0000000), wk =   0.0185185
        k(  114) = (   0.2222222   0.5452753   0.0000000), wk =   0.0185185
        k(  115) = (   0.2222222   0.5773503   0.0000000), wk =   0.0092593
        k(  116) = (   0.2500000   0.4330127   0.0000000), wk =   0.0092593
        k(  117) = (   0.2500000   0.4650877   0.0000000), wk =   0.0185185
        k(  118) = (   0.2500000   0.4971627   0.0000000), wk =   0.0185185
        k(  119) = (   0.2500000   0.5292377   0.0000000), wk =   0.0185185
        k(  120) = (   0.2500000   0.5613128   0.0000000), wk =   0.0185185
        k(  121) = (   0.2777778   0.4811252   0.0000000), wk =   0.0092593
        k(  122) = (   0.2777778   0.5132002   0.0000000), wk =   0.0185185
        k(  123) = (   0.2777778   0.5452753   0.0000000), wk =   0.0185185
        k(  124) = (   0.2777778   0.5773503   0.0000000), wk =   0.0092593
        k(  125) = (   0.3055556   0.5292377   0.0000000), wk =   0.0092593
        k(  126) = (   0.3055556   0.5613128   0.0000000), wk =   0.0185185
        k(  127) = (   0.3333333   0.5773503   0.0000000), wk =   0.0030864

                       cryst. coord.
        k(    1) = (   0.0000000   0.0000000   0.0000000), wk =   0.0015432
        k(    2) = (   0.0000000   0.0277778   0.0000000), wk =   0.0092593
        k(    3) = (   0.0000000   0.0555556   0.0000000), wk =   0.0092593
        k(    4) = (   0.0000000   0.0833333   0.0000000), wk =   0.0092593
        k(    5) = (   0.0000000   0.1111111   0.0000000), wk =   0.0092593
        k(    6) = (   0.0000000   0.1388889   0.0000000), wk =   0.0092593
        k(    7) = (   0.0000000   0.1666667   0.0000000), wk =   0.0092593
        k(    8) = (   0.0000000   0.1944444   0.0000000), wk =   0.0092593
        k(    9) = (   0.0000000   0.2222222   0.0000000), wk =   0.0092593
        k(   10) = (   0.0000000   0.2500000   0.0000000), wk =   0.0092593
        k(   11) = (   0.0000000   0.2777778   0.0000000), wk =   0.0092593
        k(   12) = (   0.0000000   0.3055556   0.0000000), wk =   0.0092593
        k(   13) = (   0.0000000   0.3333333   0.0000000), wk =   0.0092593
        k(   14) = (   0.0000000   0.3611111   0.0000000), wk =   0.0092593
        k(   15) = (   0.0000000   0.3888889   0.0000000), wk =   0.0092593
        k(   16) = (   0.0000000   0.4166667   0.0000000), wk =   0.0092593
        k(   17) = (   0.0000000   0.4444444   0.0000000), wk =   0.0092593
        k(   18) = (   0.0000000   0.4722222   0.0000000), wk =   0.0092593
        k(   19) = (   0.0000000  -0.5000000   0.0000000), wk =   0.0046296
        k(   20) = (   0.0277778   0.0277778   0.0000000), wk =   0.0092593
        k(   21) = (   0.0277778   0.0555556   0.0000000), wk =   0.0185185
        k(   22) = (   0.0277778   0.0833333   0.0000000), wk =   0.0185185
        k(   23) = (   0.0277778   0.1111111   0.0000000), wk =   0.0185185
        k(   24) = (   0.0277778   0.1388889   0.0000000), wk =   0.0185185
        k(   25) = (   0.0277778   0.1666667   0.0000000), wk =   0.0185185
        k(   26) = (   0.0277778   0.1944444   0.0000000), wk =   0.0185185
        k(   27) = (   0.0277778   0.2222222   0.0000000), wk =   0.0185185
        k(   28) = (   0.0277778   0.2500000   0.0000000), wk =   0.0185185
        k(   29) = (   0.0277778   0.2777778   0.0000000), wk =   0.0185185
        k(   30) = (   0.0277778   0.3055556   0.0000000), wk =   0.0185185
        k(   31) = (   0.0277778   0.3333333   0.0000000), wk =   0.0185185
        k(   32) = (   0.0277778   0.3611111   0.0000000), wk =   0.0185185
        k(   33) = (   0.0277778   0.3888889   0.0000000), wk =   0.0185185
        k(   34) = (   0.0277778   0.4166667   0.0000000), wk =   0.0185185
        k(   35) = (   0.0277778   0.4444444   0.0000000), wk =   0.0185185
        k(   36) = (   0.0277778   0.4722222   0.0000000), wk =   0.0185185
        k(   37) = (   0.0555556   0.0555556   0.0000000), wk =   0.0092593
        k(   38) = (   0.0555556   0.0833333   0.0000000), wk =   0.0185185
        k(   39) = (   0.0555556   0.1111111   0.0000000), wk =   0.0185185
        k(   40) = (   0.0555556   0.1388889   0.0000000), wk =   0.0185185
        k(   41) = (   0.0555556   0.1666667   0.0000000), wk =   0.0185185
        k(   42) = (   0.0555556   0.1944444   0.0000000), wk =   0.0185185
        k(   43) = (   0.0555556   0.2222222   0.0000000), wk =   0.0185185
        k(   44) = (   0.0555556   0.2500000   0.0000000), wk =   0.0185185
        k(   45) = (   0.0555556   0.2777778   0.0000000), wk =   0.0185185
        k(   46) = (   0.0555556   0.3055556   0.0000000), wk =   0.0185185
        k(   47) = (   0.0555556   0.3333333   0.0000000), wk =   0.0185185
        k(   48) = (   0.0555556   0.3611111   0.0000000), wk =   0.0185185
        k(   49) = (   0.0555556   0.3888889   0.0000000), wk =   0.0185185
        k(   50) = (   0.0555556   0.4166667   0.0000000), wk =   0.0185185
        k(   51) = (   0.0555556   0.4444444   0.0000000), wk =   0.0185185
        k(   52) = (   0.0555556   0.4722222   0.0000000), wk =   0.0092593
        k(   53) = (   0.0833333   0.0833333   0.0000000), wk =   0.0092593
        k(   54) = (   0.0833333   0.1111111   0.0000000), wk =   0.0185185
        k(   55) = (   0.0833333   0.1388889   0.0000000), wk =   0.0185185
        k(   56) = (   0.0833333   0.1666667   0.0000000), wk =   0.0185185
        k(   57) = (   0.0833333   0.1944444   0.0000000), wk =   0.0185185
        k(   58) = (   0.0833333   0.2222222   0.0000000), wk =   0.0185185
        k(   59) = (   0.0833333   0.2500000   0.0000000), wk =   0.0185185
        k(   60) = (   0.0833333   0.2777778   0.0000000), wk =   0.0185185
        k(   61) = (   0.0833333   0.3055556   0.0000000), wk =   0.0185185
        k(   62) = (   0.0833333   0.3333333   0.0000000), wk =   0.0185185
        k(   63) = (   0.0833333   0.3611111   0.0000000), wk =   0.0185185
        k(   64) = (   0.0833333   0.3888889   0.0000000), wk =   0.0185185
        k(   65) = (   0.0833333   0.4166667   0.0000000), wk =   0.0185185
        k(   66) = (   0.0833333   0.4444444   0.0000000), wk =   0.0185185
        k(   67) = (   0.1111111   0.1111111   0.0000000), wk =   0.0092593
        k(   68) = (   0.1111111   0.1388889   0.0000000), wk =   0.0185185
        k(   69) = (   0.1111111   0.1666667   0.0000000), wk =   0.0185185
        k(   70) = (   0.1111111   0.1944444   0.0000000), wk =   0.0185185
        k(   71) = (   0.1111111   0.2222222   0.0000000), wk =   0.0185185
        k(   72) = (   0.1111111   0.2500000   0.0000000), wk =   0.0185185
        k(   73) = (   0.1111111   0.2777778   0.0000000), wk =   0.0185185
        k(   74) = (   0.1111111   0.3055556   0.0000000), wk =   0.0185185
        k(   75) = (   0.1111111   0.3333333   0.0000000), wk =   0.0185185
        k(   76) = (   0.1111111   0.3611111   0.0000000), wk =   0.0185185
        k(   77) = (   0.1111111   0.3888889   0.0000000), wk =   0.0185185
        k(   78) = (   0.1111111   0.4166667   0.0000000), wk =   0.0185185
        k(   79) = (   0.1111111   0.4444444   0.0000000), wk =   0.0092593
        k(   80) = (   0.1388889   0.1388889   0.0000000), wk =   0.0092593
        k(   81) = (   0.1388889   0.1666667   0.0000000), wk =   0.0185185
        k(   82) = (   0.1388889   0.1944444   0.0000000), wk =   0.0185185
        k(   83) = (   0.1388889   0.2222222   0.0000000), wk =   0.0185185
        k(   84) = (   0.1388889   0.2500000   0.0000000), wk =   0.0185185
        k(   85) = (   0.1388889   0.2777778   0.0000000), wk =   0.0185185
        k(   86) = (   0.1388889   0.3055556   0.0000000), wk =   0.0185185
        k(   87) = (   0.1388889   0.3333333   0.0000000), wk =   0.0185185
        k(   88) = (   0.1388889   0.3611111   0.0000000), wk =   0.0185185
        k(   89) = (   0.1388889   0.3888889   0.0000000), wk =   0.0185185
        k(   90) = (   0.1388889   0.4166667   0.0000000), wk =   0.0185185
        k(   91) = (   0.1666667   0.1666667   0.0000000), wk =   0.0092593
        k(   92) = (   0.1666667   0.1944444   0.0000000), wk =   0.0185185
        k(   93) = (   0.1666667   0.2222222   0.0000000), wk =   0.0185185
        k(   94) = (   0.1666667   0.2500000   0.0000000), wk =   0.0185185
        k(   95) = (   0.1666667   0.2777778   0.0000000), wk =   0.0185185
        k(   96) = (   0.1666667   0.3055556   0.0000000), wk =   0.0185185
        k(   97) = (   0.1666667   0.3333333   0.0000000), wk =   0.0185185
        k(   98) = (   0.1666667   0.3611111   0.0000000), wk =   0.0185185
        k(   99) = (   0.1666667   0.3888889   0.0000000), wk =   0.0185185
        k(  100) = (   0.1666667   0.4166667   0.0000000), wk =   0.0092593
        k(  101) = (   0.1944444   0.1944444   0.0000000), wk =   0.0092593
        k(  102) = (   0.1944444   0.2222222   0.0000000), wk =   0.0185185
        k(  103) = (   0.1944444   0.2500000   0.0000000), wk =   0.0185185
        k(  104) = (   0.1944444   0.2777778   0.0000000), wk =   0.0185185
        k(  105) = (   0.1944444   0.3055556   0.0000000), wk =   0.0185185
        k(  106) = (   0.1944444   0.3333333   0.0000000), wk =   0.0185185
        k(  107) = (   0.1944444   0.3611111   0.0000000), wk =   0.0185185
        k(  108) = (   0.1944444   0.3888889   0.0000000), wk =   0.0185185
        k(  109) = (   0.2222222   0.2222222   0.0000000), wk =   0.0092593
        k(  110) = (   0.2222222   0.2500000   0.0000000), wk =   0.0185185
        k(  111) = (   0.2222222   0.2777778   0.0000000), wk =   0.0185185
        k(  112) = (   0.2222222   0.3055556   0.0000000), wk =   0.0185185
        k(  113) = (   0.2222222   0.3333333   0.0000000), wk =   0.0185185
        k(  114) = (   0.2222222   0.3611111   0.0000000), wk =   0.0185185
        k(  115) = (   0.2222222   0.3888889   0.0000000), wk =   0.0092593
        k(  116) = (   0.2500000   0.2500000   0.0000000), wk =   0.0092593
        k(  117) = (   0.2500000   0.2777778   0.0000000), wk =   0.0185185
        k(  118) = (   0.2500000   0.3055556   0.0000000), wk =   0.0185185
        k(  119) = (   0.2500000   0.3333333   0.0000000), wk =   0.0185185
        k(  120) = (   0.2500000   0.3611111   0.0000000), wk =   0.0185185
        k(  121) = (   0.2777778   0.2777778   0.0000000), wk =   0.0092593
        k(  122) = (   0.2777778   0.3055556   0.0000000), wk =   0.0185185
        k(  123) = (   0.2777778   0.3333333   0.0000000), wk =   0.0185185
        k(  124) = (   0.2777778   0.3611111   0.0000000), wk =   0.0092593
        k(  125) = (   0.3055556   0.3055556   0.0000000), wk =   0.0092593
        k(  126) = (   0.3055556   0.3333333   0.0000000), wk =   0.0185185
        k(  127) = (   0.3333333   0.3333333   0.0000000), wk =   0.0030864

     Dense  grid:    94757 G-vectors     FFT dimensions: (  36,  36, 200)

     Smooth grid:    51479 G-vectors     FFT dimensions: (  27,  27, 162)

     Dynamical RAM for                 wfc:       0.39 MB

     Dynamical RAM for     wfc (w. buffer):       4.33 MB

     Dynamical RAM for           str. fact:       0.72 MB

     Dynamical RAM for           local pot:       0.00 MB

     Dynamical RAM for          nlocal pot:       0.79 MB

     Dynamical RAM for                qrad:       0.50 MB

     Dynamical RAM for          rho,v,vnew:       5.13 MB

     Dynamical RAM for               rhoin:       1.71 MB

     Dynamical RAM for            rho*nmix:      11.57 MB

     Dynamical RAM for           G-vectors:       2.91 MB

     Dynamical RAM for          h,s,v(r/c):       0.01 MB

     Dynamical RAM for          <psi|beta>:       0.00 MB

     Dynamical RAM for                 psi:       0.79 MB

     Dynamical RAM for                hpsi:       0.79 MB

     Dynamical RAM for                spsi:       0.79 MB

     Dynamical RAM for      wfcinit/wfcrot:       0.79 MB

     Dynamical RAM for           addusdens:       2.99 MB

     Dynamical RAM for          addusforce:       2.79 MB

     Dynamical RAM for         addusstress:       2.92 MB

     Estimated static dynamical RAM per process >      22.48 MB

     Estimated max dynamical RAM per process >      37.04 MB

     Estimated total dynamical RAM >     736.54 MB
 ----2D----2D----2D----2D----2D----2D----2D----2D----2D----2D----2D----2D
  The code is running with the 2D cutoff
  Please refer to:
  Sohier, T., Calandra, M., & Mauri, F. (2017), 
  Density functional perturbation theory for gated two-dimensional heterostructu
 res:
  Theoretical developments and application to flexural phonons in graphene.
  Physical Review B, 96(7), 75448. https://doi.org/10.1103/PhysRevB.96.075448
 ----2D----2D----2D----2D----2D----2D----2D----2D----2D----2D----2D----2D

     Check: negative core charge=   -0.000001

     Initial potential from superposition of free atoms

     starting charge       7.9999, renormalised to       8.0000

     negative rho (up, down):  4.076E-05 0.000E+00
     Starting wfcs are    8 randomized atomic wfcs
     Checking if some PAW data can be deallocated... 

     total cpu time spent up to now is        6.9 secs

     Self-consistent Calculation

     iteration #  1     ecut=    80.00 Ry     beta= 0.70
     Davidson diagonalization with overlap

---- Real-time Memory Report at c_bands before calling an iterative solver
           155 MiB given to the printing process from OS
             0 MiB allocation reported by mallinfo(arena+hblkhd)
         53767 MiB available memory on the node where the printing process lives
------------------
     ethr =  1.00E-02,  avg # of iterations =  5.5

     negative rho (up, down):  4.953E-05 0.000E+00

     total cpu time spent up to now is       12.6 secs

     total energy              =     -36.86289615 Ry
     estimated scf accuracy    <       0.18812315 Ry

     iteration #  2     ecut=    80.00 Ry     beta= 0.70
     Davidson diagonalization with overlap

---- Real-time Memory Report at c_bands before calling an iterative solver
           182 MiB given to the printing process from OS
             0 MiB allocation reported by mallinfo(arena+hblkhd)
         53134 MiB available memory on the node where the printing process lives
------------------
     ethr =  2.35E-03,  avg # of iterations =  3.9

     negative rho (up, down):  6.541E-05 0.000E+00

     total cpu time spent up to now is       17.3 secs

     total energy              =     -36.88769541 Ry
     estimated scf accuracy    <       0.00191528 Ry

     iteration #  3     ecut=    80.00 Ry     beta= 0.70
     Davidson diagonalization with overlap

---- Real-time Memory Report at c_bands before calling an iterative solver
           188 MiB given to the printing process from OS
             0 MiB allocation reported by mallinfo(arena+hblkhd)
         53039 MiB available memory on the node where the printing process lives
------------------
     c_bands:  1 eigenvalues not converged
     ethr =  2.39E-05,  avg # of iterations =  9.1

     negative rho (up, down):  7.748E-05 0.000E+00

     total cpu time spent up to now is       20.9 secs

     total energy              =     -36.88802970 Ry
     estimated scf accuracy    <       0.00015602 Ry

     iteration #  4     ecut=    80.00 Ry     beta= 0.70
     Davidson diagonalization with overlap

---- Real-time Memory Report at c_bands before calling an iterative solver
           193 MiB given to the printing process from OS
             0 MiB allocation reported by mallinfo(arena+hblkhd)
         53025 MiB available memory on the node where the printing process lives
------------------
     ethr =  1.95E-06,  avg # of iterations =  3.9

     negative rho (up, down):  7.874E-05 0.000E+00

     total cpu time spent up to now is       24.4 secs

     total energy              =     -36.88804443 Ry
     estimated scf accuracy    <       0.00000263 Ry

     iteration #  5     ecut=    80.00 Ry     beta= 0.70
     Davidson diagonalization with overlap

---- Real-time Memory Report at c_bands before calling an iterative solver
           194 MiB given to the printing process from OS
             0 MiB allocation reported by mallinfo(arena+hblkhd)
         53026 MiB available memory on the node where the printing process lives
------------------
     ethr =  3.29E-08,  avg # of iterations =  2.9

     negative rho (up, down):  7.889E-05 0.000E+00

     total cpu time spent up to now is       28.5 secs

     total energy              =     -36.88804577 Ry
     estimated scf accuracy    <       0.00000009 Ry

     iteration #  6     ecut=    80.00 Ry     beta= 0.70
     Davidson diagonalization with overlap

---- Real-time Memory Report at c_bands before calling an iterative solver
           196 MiB given to the printing process from OS
             0 MiB allocation reported by mallinfo(arena+hblkhd)
         53024 MiB available memory on the node where the printing process lives
------------------
     ethr =  1.19E-09,  avg # of iterations =  2.5

     negative rho (up, down):  7.892E-05 0.000E+00

     total cpu time spent up to now is       32.3 secs

     total energy              =     -36.88804580 Ry
     estimated scf accuracy    <          9.2E-10 Ry

     iteration #  7     ecut=    80.00 Ry     beta= 0.70
     Davidson diagonalization with overlap

---- Real-time Memory Report at c_bands before calling an iterative solver
           198 MiB given to the printing process from OS
             0 MiB allocation reported by mallinfo(arena+hblkhd)
         53017 MiB available memory on the node where the printing process lives
------------------
     ethr =  1.15E-11,  avg # of iterations =  3.4

     negative rho (up, down):  7.892E-05 0.000E+00

     total cpu time spent up to now is       35.9 secs

     total energy              =     -36.88804580 Ry
     estimated scf accuracy    <          4.7E-11 Ry

     iteration #  8     ecut=    80.00 Ry     beta= 0.70
     Davidson diagonalization with overlap

---- Real-time Memory Report at c_bands before calling an iterative solver
           199 MiB given to the printing process from OS
             0 MiB allocation reported by mallinfo(arena+hblkhd)
         53018 MiB available memory on the node where the printing process lives
------------------
     ethr =  5.89E-13,  avg # of iterations =  2.1

     negative rho (up, down):  7.892E-05 0.000E+00

     total cpu time spent up to now is       38.8 secs

     total energy              =     -36.88804580 Ry
     estimated scf accuracy    <          1.4E-12 Ry

     iteration #  9     ecut=    80.00 Ry     beta= 0.70
     Davidson diagonalization with overlap

---- Real-time Memory Report at c_bands before calling an iterative solver
           199 MiB given to the printing process from OS
             0 MiB allocation reported by mallinfo(arena+hblkhd)
         53018 MiB available memory on the node where the printing process lives
------------------
     ethr =  1.00E-13,  avg # of iterations =  1.4

     negative rho (up, down):  7.892E-05 0.000E+00

     total cpu time spent up to now is       43.8 secs

     End of self-consistent calculation

          k = 0.0000 0.0000 0.0000 (  6513 PWs)   bands (ev):

   -23.7625 -11.8587  -7.3006  -7.3006  -0.9701  -0.0905   1.6005   2.5203

     occupation numbers 
     1.0000   1.0000   1.0000   1.0000  -0.0000  -0.0000  -0.0000  -0.0000

          k = 0.0000 0.0321 0.0000 (  6517 PWs)   bands (ev):

   -23.7443 -11.8370  -7.3763  -7.3406  -0.9454  -0.0656   1.6254   2.5449

     occupation numbers 
     1.0000   1.0000   1.0000   1.0000  -0.0000  -0.0000  -0.0000  -0.0000

          k = 0.0000 0.0642 0.0000 (  6501 PWs)   bands (ev):

   -23.6897 -11.7716  -7.5981  -7.4568  -0.8713   0.0092   1.6999   2.6190

     occupation numbers 
     1.0000   1.0000   1.0000   1.0000  -0.0000  -0.0000  -0.0000  -0.0000

          k = 0.0000 0.0962 0.0000 (  6505 PWs)   bands (ev):

   -23.5988 -11.6630  -7.9513  -7.6386  -0.7479   0.1339   1.8241   2.7424

     occupation numbers 
     1.0000   1.0000   1.0000   1.0000  -0.0000  -0.0000  -0.0000  -0.0000

          k = 0.0000 0.1283 0.0000 (  6509 PWs)   bands (ev):

   -23.4716 -11.5113  -8.4153  -7.8717  -0.5750   0.3083   1.9981   2.9149

     occupation numbers 
     1.0000   1.0000   1.0000   1.0000  -0.0000  -0.0000  -0.0000  -0.0000

          k = 0.0000 0.1604 0.0000 (  6495 PWs)   bands (ev):

   -23.3084 -11.3171  -8.9681  -8.1405  -0.3527   0.5323   2.2216   3.1362

     occupation numbers 
     1.0000   1.0000   1.0000   1.0000  -0.0000  -0.0000  -0.0000  -0.0000

          k = 0.0000 0.1925 0.0000 (  6485 PWs)   bands (ev):

   -23.1093 -11.0810  -9.5887  -8.4303  -0.0811   0.8055   2.4944   3.4051

     occupation numbers 
     1.0000   1.0000   1.0000   1.0000  -0.0000  -0.0000  -0.0000  -0.0000

          k = 0.0000 0.2245 0.0000 (  6477 PWs)   bands (ev):

   -22.8746 -10.8039 -10.2586  -8.7283   0.2396   1.1274   2.8156   3.7155

     occupation numbers 
     1.0000   1.0000   1.0000   1.0000  -0.0000  -0.0000  -0.0000  -0.0000

          k = 0.0000 0.2566 0.0000 (  6463 PWs)   bands (ev):

   -22.6047 -10.9621 -10.4870  -9.0242   0.6094   1.4964   3.1820   3.7073

     occupation numbers 
     1.0000   1.0000   1.0000   1.0000  -0.0000  -0.0000  -0.0000  -0.0000

          k = 0.0000 0.2887 0.0000 (  6453 PWs)   bands (ev):

   -22.2999 -11.6864 -10.1320  -9.3094   1.0279   1.9038   3.0075   3.5645

     occupation numbers 
     1.0000   1.0000   1.0000   1.0000  -0.0000  -0.0000  -0.0000  -0.0000

          k = 0.0000 0.3208 0.0000 (  6422 PWs)   bands (ev):

   -21.9608 -12.4210  -9.7411  -9.5774   1.4946   2.1082   2.5147   3.6521

     occupation numbers 
     1.0000   1.0000   1.0000   1.0000  -0.0000  -0.0000  -0.0000  -0.0000

          k = 0.0000 0.3528 0.0000 (  6430 PWs)   bands (ev):

   -21.5881 -13.1574  -9.8231  -9.3175   1.4215   2.0086   2.9481   3.5615

     occupation numbers 
     1.0000   1.0000   1.0000   1.0000  -0.0000  -0.0000  -0.0000  -0.0000

          k = 0.0000 0.3849 0.0000 (  6428 PWs)   bands (ev):

   -21.1827 -13.8883 -10.0423  -8.8662   0.6591   2.5665   3.4688   3.5068

     occupation numbers 
     1.0000   1.0000   1.0000   1.0000  -0.0000  -0.0000  -0.0000  -0.0000

          k = 0.0000 0.4170 0.0000 (  6420 PWs)   bands (ev):

   -20.7459 -14.6077 -10.2322  -8.3944  -0.0930   3.1316   3.4244   4.1194

     occupation numbers 
     1.0000   1.0000   1.0000   1.0000  -0.0000  -0.0000  -0.0000  -0.0000

          k = 0.0000 0.4491 0.0000 (  6442 PWs)   bands (ev):

   -20.2800 -15.3094 -10.3903  -7.9142  -0.8119   3.2564   3.8797   4.7804

     occupation numbers 
     1.0000   1.0000   1.0000   1.0000  -0.0000  -0.0000  -0.0000  -0.0000

          k = 0.0000 0.4811 0.0000 (  6432 PWs)   bands (ev):

   -19.7890 -15.9865 -10.5150  -7.4466  -1.4707   3.2059   4.5717   5.4872

     occupation numbers 
     1.0000   1.0000   1.0000   1.0000  -0.0000  -0.0000  -0.0000  -0.0000

          k = 0.0000 0.5132 0.0000 (  6424 PWs)   bands (ev):

   -19.2831 -16.6267 -10.6048  -7.0281  -2.0285   3.1627   5.3178   6.2369

     occupation numbers 
     1.0000   1.0000   1.0000   1.0000  -0.0000  -0.0000  -0.0000  -0.0000

          k = 0.0000 0.5453 0.0000 (  6432 PWs)   bands (ev):

   -18.7989 -17.1920 -10.6591  -6.7207  -2.4205   3.1355   6.1075   7.0240

     occupation numbers 
     1.0000   1.0000   1.0000   1.0000  -0.0000  -0.0000  -0.0000  -0.0000

          k = 0.0000-0.5774 0.0000 (  6414 PWs)   bands (ev):

   -18.5300 -17.4881 -10.6772  -6.6042  -2.5655   3.1264   6.8654   7.0193

     occupation numbers 
     1.0000   1.0000   1.0000   1.0000  -0.0000  -0.0000  -0.0000  -0.0000

          k = 0.0278 0.0481 0.0000 (  6497 PWs)   bands (ev):

   -23.7079 -11.7934  -7.5232  -7.4206  -0.8960  -0.0157   1.6751   2.5946

     occupation numbers 
     1.0000   1.0000   1.0000   1.0000  -0.0000  -0.0000  -0.0000  -0.0000

          k = 0.0278 0.0802 0.0000 (  6501 PWs)   bands (ev):

   -23.6351 -11.7064  -7.8056  -7.5747  -0.7972   0.0840   1.7745   2.6931

     occupation numbers 
     1.0000   1.0000   1.0000   1.0000  -0.0000  -0.0000  -0.0000  -0.0000

          k = 0.0278 0.1123 0.0000 (  6503 PWs)   bands (ev):

   -23.5261 -11.5763  -8.2080  -7.7885  -0.6490   0.2336   1.9236   2.8410

     occupation numbers 
     1.0000   1.0000   1.0000   1.0000  -0.0000  -0.0000  -0.0000  -0.0000

          k = 0.0278 0.1443 0.0000 (  6491 PWs)   bands (ev):

   -23.3809 -11.4033  -8.7102  -8.0458  -0.4514   0.4328   2.1224   3.0380

     occupation numbers 
     1.0000   1.0000   1.0000   1.0000  -0.0000  -0.0000  -0.0000  -0.0000

          k = 0.0278 0.1764 0.0000 (  6483 PWs)   bands (ev):

   -23.1997 -11.1881  -9.2912  -8.3310  -0.2045   0.6814   2.3707   3.2833

     occupation numbers 
     1.0000   1.0000   1.0000   1.0000  -0.0000  -0.0000  -0.0000  -0.0000

          k = 0.0278 0.2085 0.0000 (  6472 PWs)   bands (ev):

   -22.9829 -10.9315  -9.9317  -8.6298   0.0917   0.9791   2.6680   3.5747

     occupation numbers 
     1.0000   1.0000   1.0000   1.0000  -0.0000  -0.0000  -0.0000  -0.0000

          k = 0.0278 0.2406 0.0000 (  6471 PWs)   bands (ev):

   -22.7306 -10.6344 -10.6145  -8.9307   0.4370   1.3249   3.0131   3.8693

     occupation numbers 
     1.0000   1.0000   1.0000   1.0000  -0.0000  -0.0000  -0.0000  -0.0000

          k = 0.0278 0.2726 0.0000 (  6453 PWs)   bands (ev):

   -22.4432 -11.3254 -10.2983  -9.2244   0.8312   1.7155   3.3429   3.3993

     occupation numbers 
     1.0000   1.0000   1.0000   1.0000  -0.0000  -0.0000  -0.0000  -0.0000

          k = 0.0278 0.3047 0.0000 (  6447 PWs)   bands (ev):

   -22.1212 -12.0525  -9.9251  -9.5034   1.2740   2.1161   2.6464   3.7257

     occupation numbers 
     1.0000   1.0000   1.0000   1.0000  -0.0000  -0.0000  -0.0000  -0.0000

          k = 0.0278 0.3368 0.0000 (  6443 PWs)   bands (ev):

   -21.7653 -12.7862  -9.7620  -9.5175   1.7647   1.7811   2.7119   3.6894

     occupation numbers 
     1.0000   1.0000   1.0000   1.0000  -0.0000  -0.0000  -0.0000  -0.0000

          k = 0.0278 0.3689 0.0000 (  6430 PWs)   bands (ev):

   -21.3762 -13.5186  -9.9958  -9.0795   1.0293   2.3017   3.2363   3.5950

     occupation numbers 
     1.0000   1.0000   1.0000   1.0000  -0.0000  -0.0000  -0.0000  -0.0000

          k = 0.0278 0.4009 0.0000 (  6422 PWs)   bands (ev):

   -20.9551 -14.2428 -10.2014  -8.6168   0.2713   2.8781   3.5113   3.8234

     occupation numbers 
     1.0000   1.0000   1.0000   1.0000  -0.0000  -0.0000  -0.0000  -0.0000

          k = 0.0278 0.4330 0.0000 (  6429 PWs)   bands (ev):

   -20.5035 -14.9527 -10.3761  -8.1390  -0.4650   3.3320   3.6077   4.4602

     occupation numbers 
     1.0000   1.0000   1.0000   1.0000  -0.0000  -0.0000  -0.0000  -0.0000

          k = 0.0278 0.4651 0.0000 (  6431 PWs)   bands (ev):

   -20.0245 -15.6421 -10.5180  -7.6616  -1.1562   3.3140   4.2363   5.1437

     occupation numbers 
     1.0000   1.0000   1.0000   1.0000  -0.0000  -0.0000  -0.0000  -0.0000

          k = 0.0278 0.4972 0.0000 (  6432 PWs)   bands (ev):

   -19.5243 -16.3022 -10.6256  -7.2122  -1.7699   3.2655   4.9569   5.8714

     occupation numbers 
     1.0000   1.0000   1.0000   1.0000  -0.0000  -0.0000  -0.0000  -0.0000

          k = 0.0278 0.5292 0.0000 (  6443 PWs)   bands (ev):

   -19.0211 -16.9129 -10.6979  -6.8394  -2.2542   3.2300   5.7252   6.6391

     occupation numbers 
     1.0000   1.0000   1.0000   1.0000  -0.0000  -0.0000  -0.0000  -0.0000

          k = 0.0278 0.5613 0.0000 (  6434 PWs)   bands (ev):

   -18.5980 -17.3900 -10.7342  -6.6176  -2.5323   3.2118   6.5320   7.3940

     occupation numbers 
     1.0000   1.0000   1.0000   1.0000  -0.0000  -0.0000  -0.0000  -0.0000

          k = 0.0556 0.0962 0.0000 (  6497 PWs)   bands (ev):

   -23.5443 -11.5979  -8.1287  -7.7694  -0.6737   0.2087   1.8988   2.8164

     occupation numbers 
     1.0000   1.0000   1.0000   1.0000  -0.0000  -0.0000  -0.0000  -0.0000

          k = 0.0556 0.1283 0.0000 (  6499 PWs)   bands (ev):

   -23.4172 -11.4465  -8.5554  -8.0214  -0.5008   0.3830   2.0728   2.9888

     occupation numbers 
     1.0000   1.0000   1.0000   1.0000  -0.0000  -0.0000  -0.0000  -0.0000

          k = 0.0556 0.1604 0.0000 (  6489 PWs)   bands (ev):

   -23.2541 -11.2525  -9.0715  -8.3097  -0.2785   0.6069   2.2966   3.2101

     occupation numbers 
     1.0000   1.0000   1.0000   1.0000  -0.0000  -0.0000  -0.0000  -0.0000

          k = 0.0556 0.1925 0.0000 (  6475 PWs)   bands (ev):

   -23.0551 -11.0167  -9.6598  -8.6168  -0.0068   0.8801   2.5698   3.4793

     occupation numbers 
     1.0000   1.0000   1.0000   1.0000  -0.0000  -0.0000  -0.0000  -0.0000

          k = 0.0556 0.2245 0.0000 (  6465 PWs)   bands (ev):

   -22.8206 -10.7400 -10.3029  -8.9291   0.3140   1.2021   2.8919   3.7889

     occupation numbers 
     1.0000   1.0000   1.0000   1.0000  -0.0000  -0.0000  -0.0000  -0.0000

          k = 0.0556 0.2566 0.0000 (  6451 PWs)   bands (ev):

   -22.5509 -10.9852 -10.4236  -9.2360   0.6838   1.5712   3.2613   3.6187

     occupation numbers 
     1.0000   1.0000   1.0000   1.0000  -0.0000  -0.0000  -0.0000  -0.0000

          k = 0.0556 0.2887 0.0000 (  6448 PWs)   bands (ev):

   -22.2463 -11.6928 -10.0690  -9.5297   1.1025   1.9784   2.9202   3.6681

     occupation numbers 
     1.0000   1.0000   1.0000   1.0000  -0.0000  -0.0000  -0.0000  -0.0000

          k = 0.0556 0.3208 0.0000 (  6441 PWs)   bands (ev):

   -21.9076 -12.4144  -9.8041  -9.6786   1.5695   2.0827   2.5407   3.9418

     occupation numbers 
     1.0000   1.0000   1.0000   1.0000  -0.0000  -0.0000  -0.0000  -0.0000

          k = 0.0556 0.3528 0.0000 (  6439 PWs)   bands (ev):

   -21.5352 -13.1407 -10.0543  -9.2556   1.3705   2.0841   3.0122   3.8793

     occupation numbers 
     1.0000   1.0000   1.0000   1.0000  -0.0000  -0.0000  -0.0000  -0.0000

          k = 0.0556 0.3849 0.0000 (  6429 PWs)   bands (ev):

   -21.1303 -13.8638 -10.2770  -8.8046   0.6171   2.6444   3.5729   3.7888

     occupation numbers 
     1.0000   1.0000   1.0000   1.0000  -0.0000  -0.0000  -0.0000  -0.0000

          k = 0.0556 0.4170 0.0000 (  6424 PWs)   bands (ev):

   -20.6941 -14.5770 -10.4692  -8.3330  -0.1258   3.2383   3.7170   4.1848

     occupation numbers 
     1.0000   1.0000   1.0000   1.0000  -0.0000  -0.0000  -0.0000  -0.0000

          k = 0.0556 0.4491 0.0000 (  6433 PWs)   bands (ev):

   -20.2288 -15.2739 -10.6290  -7.8528  -0.8371   3.5700   3.9658   4.8437

     occupation numbers 
     1.0000   1.0000   1.0000   1.0000  -0.0000  -0.0000  -0.0000  -0.0000

          k = 0.0556 0.4811 0.0000 (  6432 PWs)   bands (ev):

   -19.7387 -15.9472 -10.7548  -7.3844  -1.4906   3.5316   4.6450   5.5470

     occupation numbers 
     1.0000   1.0000   1.0000   1.0000  -0.0000  -0.0000  -0.0000  -0.0000

          k = 0.0556 0.5132 0.0000 (  6443 PWs)   bands (ev):

   -19.2339 -16.5844 -10.8454  -6.9644  -2.0455   3.4896   5.3888   6.2908

     occupation numbers 
     1.0000   1.0000   1.0000   1.0000  -0.0000  -0.0000  -0.0000  -0.0000

          k = 0.0556 0.5453 0.0000 (  6445 PWs)   bands (ev):

   -18.7511 -17.1472 -10.9000  -6.6552  -2.4369   3.4627   6.1764   7.0665

     occupation numbers 
     1.0000   1.0000   1.0000   1.0000  -0.0000  -0.0000  -0.0000  -0.0000

          k = 0.0556 0.5774 0.0000 (  6430 PWs)   bands (ev):

   -18.4832 -17.4419 -10.9183  -6.5376  -2.5820   3.4536   6.9293   7.0874

     occupation numbers 
     1.0000   1.0000   1.0000   1.0000  -0.0000  -0.0000  -0.0000  -0.0000

          k = 0.0833 0.1443 0.0000 (  6493 PWs)   bands (ev):

   -23.2722 -11.2740  -8.9852  -8.3153  -0.3031   0.5821   2.2719   3.1857

     occupation numbers 
     1.0000   1.0000   1.0000   1.0000  -0.0000  -0.0000  -0.0000  -0.0000

          k = 0.0833 0.1764 0.0000 (  6473 PWs)   bands (ev):

   -23.0913 -11.0594  -9.4916  -8.6426  -0.0561   0.8306   2.5206   3.4313

     occupation numbers 
     1.0000   1.0000   1.0000   1.0000  -0.0000  -0.0000  -0.0000  -0.0000

          k = 0.0833 0.2085 0.0000 (  6472 PWs)   bands (ev):

   -22.8747 -10.8035 -10.0659  -8.9802   0.2402   1.1283   2.8189   3.7231

     occupation numbers 
     1.0000   1.0000   1.0000   1.0000  -0.0000  -0.0000  -0.0000  -0.0000

          k = 0.0833 0.2406 0.0000 (  6460 PWs)   bands (ev):

   -22.6227 -10.6946 -10.5073  -9.3125   0.5857   1.4742   3.1660   3.8193

     occupation numbers 
     1.0000   1.0000   1.0000   1.0000  -0.0000  -0.0000  -0.0000  -0.0000

          k = 0.0833 0.2726 0.0000 (  6458 PWs)   bands (ev):

   -22.3359 -11.3632 -10.1722  -9.6301   0.9800   1.8653   3.1503   3.5603

     occupation numbers 
     1.0000   1.0000   1.0000   1.0000  -0.0000  -0.0000  -0.0000  -0.0000

          k = 0.0833 0.3047 0.0000 (  6447 PWs)   bands (ev):

   -22.0145 -12.0578  -9.9268  -9.8000   1.4230   2.2332   2.5120   3.9920

     occupation numbers 
     1.0000   1.0000   1.0000   1.0000  -0.0000  -0.0000  -0.0000  -0.0000

          k = 0.0833 0.3368 0.0000 (  6437 PWs)   bands (ev):

   -21.6593 -12.7666 -10.1983  -9.3934   1.6682   1.9142   2.8342   4.2749

     occupation numbers 
     1.0000   1.0000   1.0000   1.0000  -0.0000  -0.0000  -0.0000  -0.0000

          k = 0.0833 0.3689 0.0000 (  6426 PWs)   bands (ev):

   -21.2710 -13.4798 -10.4413  -8.9563   0.9305   2.4527   3.3686   4.2144

     occupation numbers 
     1.0000   1.0000   1.0000   1.0000  -0.0000  -0.0000  -0.0000  -0.0000

          k = 0.0833 0.4009 0.0000 (  6431 PWs)   bands (ev):

   -20.8509 -14.1892 -10.6535  -8.4943   0.1924   3.0365   3.9552   4.1302

     occupation numbers 
     1.0000   1.0000   1.0000   1.0000  -0.0000  -0.0000  -0.0000  -0.0000

          k = 0.0833 0.4330 0.0000 (  6435 PWs)   bands (ev):

   -20.4006 -14.8877 -10.8328  -8.0166  -0.5264   3.6509   4.0680   4.5886

     occupation numbers 
     1.0000   1.0000   1.0000   1.0000  -0.0000  -0.0000  -0.0000  -0.0000

          k = 0.0833 0.4651 0.0000 (  6438 PWs)   bands (ev):

   -19.9232 -15.5681 -10.9779  -7.5385  -1.2043   3.9355   4.3938   5.2660

     occupation numbers 
     1.0000   1.0000   1.0000   1.0000  -0.0000  -0.0000  -0.0000  -0.0000

          k = 0.0833 0.4972 0.0000 (  6431 PWs)   bands (ev):

   -19.4249 -16.2211 -11.0875  -7.0869  -1.8096   3.8985   5.1012   5.9833

     occupation numbers 
     1.0000   1.0000   1.0000   1.0000  -0.0000  -0.0000  -0.0000  -0.0000

          k = 0.0833 0.5292 0.0000 (  6432 PWs)   bands (ev):

   -18.9240 -16.8262 -11.1611  -6.7104  -2.2905   3.8644   5.8651   6.7323

     occupation numbers 
     1.0000   1.0000   1.0000   1.0000  -0.0000  -0.0000  -0.0000  -0.0000

          k = 0.0833 0.5613 0.0000 (  6439 PWs)   bands (ev):

   -18.5037 -17.2991 -11.1980  -6.4851  -2.5686   3.8464   6.6662   7.5216

     occupation numbers 
     1.0000   1.0000   1.0000   1.0000  -0.0000  -0.0000  -0.0000  -0.0000

          k = 0.1111 0.1925 0.0000 (  6461 PWs)   bands (ev):

   -22.8927 -10.8247  -9.9709  -9.0136   0.2156   1.1036   2.7945   3.7003

     occupation numbers 
     1.0000   1.0000   1.0000   1.0000  -0.0000  -0.0000  -0.0000  -0.0000

          k = 0.1111 0.2245 0.0000 (  6455 PWs)   bands (ev):

   -22.6587 -10.5492 -10.5107  -9.3913   0.5366   1.4255   3.1179   3.9378

     occupation numbers 
     1.0000   1.0000   1.0000   1.0000  -0.0000  -0.0000  -0.0000  -0.0000

          k = 0.1111 0.2566 0.0000 (  6450 PWs)   bands (ev):

   -22.3896 -11.1065 -10.2342  -9.7538   0.9065   1.7952   3.3012   3.4902

     occupation numbers 
     1.0000   1.0000   1.0000   1.0000  -0.0000  -0.0000  -0.0000  -0.0000

          k = 0.1111 0.2887 0.0000 (  6439 PWs)   bands (ev):

   -22.0859 -11.7468 -10.0897  -9.8812   1.3253   2.2010   2.6400   3.9100

     occupation numbers 
     1.0000   1.0000   1.0000   1.0000  -0.0000  -0.0000  -0.0000  -0.0000

          k = 0.1111 0.3208 0.0000 (  6434 PWs)   bands (ev):

   -21.7481 -12.4178 -10.3945  -9.4924   1.7925   1.9059   2.7013   4.3701

     occupation numbers 
     1.0000   1.0000   1.0000   1.0000  -0.0000  -0.0000  -0.0000  -0.0000

          k = 0.1111 0.3528 0.0000 (  6438 PWs)   bands (ev):

   -21.3769 -13.1061 -10.6662  -9.0709   1.1939   2.3077   3.2111   4.7177

     occupation numbers 
     1.0000   1.0000   1.0000   1.0000  -0.0000  -0.0000  -0.0000  -0.0000

          k = 0.1111 0.3849 0.0000 (  6431 PWs)   bands (ev):

   -20.9734 -13.8006 -10.9039  -8.6213   0.4727   2.8700   3.7725   4.6764

     occupation numbers 
     1.0000   1.0000   1.0000   1.0000  -0.0000  -0.0000  -0.0000  -0.0000

          k = 0.1111 0.4170 0.0000 (  6445 PWs)   bands (ev):

   -20.5389 -14.4922 -11.1066  -8.1505  -0.2403   3.4774   4.3799   4.5996

     occupation numbers 
     1.0000   1.0000   1.0000   1.0000  -0.0000  -0.0000  -0.0000  -0.0000

          k = 0.1111 0.4491 0.0000 (  6444 PWs)   bands (ev):

   -20.0758 -15.1725 -11.2736  -7.6699  -0.9274   4.1168   4.5423   5.0302

     occupation numbers 
     1.0000   1.0000   1.0000   1.0000  -0.0000  -0.0000  -0.0000  -0.0000

          k = 0.1111 0.4811 0.0000 (  6446 PWs)   bands (ev):

   -19.5883 -15.8330 -11.4042  -7.1994  -1.5638   4.4246   4.8741   5.7189

     occupation numbers 
     1.0000   1.0000   1.0000   1.0000  -0.0000  -0.0000  -0.0000  -0.0000

          k = 0.1111 0.5132 0.0000 (  6439 PWs)   bands (ev):

   -19.0867 -16.4602 -11.4978  -6.7748  -2.1097   4.3947   5.6022   6.4366

     occupation numbers 
     1.0000   1.0000   1.0000   1.0000  -0.0000  -0.0000  -0.0000  -0.0000

          k = 0.1111 0.5453 0.0000 (  6434 PWs)   bands (ev):

   -18.6078 -17.0153 -11.5541  -6.4591  -2.4993   4.3691   6.3821   7.1565

     occupation numbers 
     1.0000   1.0000   1.0000   1.0000  -0.0000  -0.0000  -0.0000  -0.0000

          k = 0.1111 0.5774 0.0000 (  6432 PWs)   bands (ev):

   -18.3428 -17.3058 -11.5729  -6.3382  -2.6450   4.3602   7.1185   7.2906

     occupation numbers 
     1.0000   1.0000   1.0000   1.0000  -0.0000  -0.0000  -0.0000  -0.0000

          k = 0.1389 0.2406 0.0000 (  6451 PWs)   bands (ev):

   -22.4076 -11.0018 -10.2549  -9.8150   0.8820   1.7716   3.3539   3.4665

     occupation numbers 
     1.0000   1.0000   1.0000   1.0000  -0.0000  -0.0000  -0.0000  -0.0000

          k = 0.1389 0.2726 0.0000 (  6441 PWs)   bands (ev):

   -22.1216 -11.5458 -10.2194  -9.9219   1.2764   2.1644   2.7297   3.8640

     occupation numbers 
     1.0000   1.0000   1.0000   1.0000  -0.0000  -0.0000  -0.0000  -0.0000

          k = 0.1389 0.3047 0.0000 (  6444 PWs)   bands (ev):

   -21.8014 -12.1405 -10.5855  -9.5520   1.7194   2.0650   2.6145   4.3093

     occupation numbers 
     1.0000   1.0000   1.0000   1.0000  -0.0000  -0.0000  -0.0000  -0.0000

          k = 0.1389 0.3368 0.0000 (  6434 PWs)   bands (ev):

   -21.4476 -12.7745 -10.9071  -9.1477   1.3874   2.2106   3.1025   4.7976

     occupation numbers 
     1.0000   1.0000   1.0000   1.0000  -0.0000  -0.0000  -0.0000  -0.0000

          k = 0.1389 0.3689 0.0000 (  6450 PWs)   bands (ev):

   -21.0611 -13.4331 -11.1847  -8.7128   0.6955   2.7495   3.6387   5.2398

     occupation numbers 
     1.0000   1.0000   1.0000   1.0000  -0.0000  -0.0000  -0.0000  -0.0000

          k = 0.1389 0.4009 0.0000 (  6459 PWs)   bands (ev):

   -20.6431 -14.1026 -11.4203  -8.2525   0.0020   3.3351   4.2194   5.2430

     occupation numbers 
     1.0000   1.0000   1.0000   1.0000  -0.0000  -0.0000  -0.0000  -0.0000

          k = 0.1389 0.4330 0.0000 (  6453 PWs)   bands (ev):

   -20.1955 -14.7716 -11.6154  -7.7754  -0.6788   3.9655   4.8415   5.1748

     occupation numbers 
     1.0000   1.0000   1.0000   1.0000  -0.0000  -0.0000  -0.0000  -0.0000

          k = 0.1389 0.4651 0.0000 (  6441 PWs)   bands (ev):

   -19.7212 -15.4300 -11.7710  -7.2958  -1.3277   4.6312   5.1203   5.4996

     occupation numbers 
     1.0000   1.0000   1.0000   1.0000  -0.0000  -0.0000  -0.0000  -0.0000

          k = 0.1389 0.4972 0.0000 (  6442 PWs)   bands (ev):

   -19.2269 -16.0664 -11.8875  -6.8396  -1.9147   5.0160   5.4024   6.1823

     occupation numbers 
     1.0000   1.0000   1.0000   1.0000  -0.0000  -0.0000  -0.0000  -0.0000

          k = 0.1389 0.5292 0.0000 (  6428 PWs)   bands (ev):

   -18.7308 -16.6588 -11.9651  -6.4547  -2.3887   4.9966   6.1446   6.8614

     occupation numbers 
     1.0000   1.0000   1.0000   1.0000  -0.0000  -0.0000  -0.0000  -0.0000

          k = 0.1389 0.5613 0.0000 (  6435 PWs)   bands (ev):

   -18.3154 -17.1229 -12.0039  -6.2210  -2.6675   4.9799   6.9315   7.7697

     occupation numbers 
     1.0000   1.0000   1.0000   1.0000  -0.0000  -0.0000  -0.0000  -0.0000

          k = 0.1667 0.2887 0.0000 (  6429 PWs)   bands (ev):

   -21.8192 -12.0253 -10.6728  -9.5719   1.6950   2.1230   2.5824   4.2867

     occupation numbers 
     1.0000   1.0000   1.0000   1.0000  -0.0000  -0.0000  -0.0000  -0.0000

          k = 0.1667 0.3208 0.0000 (  6443 PWs)   bands (ev):

   -21.4830 -12.5556 -11.0833  -9.1863   1.4909   2.1619   3.0464   4.7575

     occupation numbers 
     1.0000   1.0000   1.0000   1.0000  -0.0000  -0.0000  -0.0000  -0.0000

          k = 0.1667 0.3528 0.0000 (  6446 PWs)   bands (ev):

   -21.1139 -13.1353 -11.4355  -8.7680   0.8402   2.6768   3.5562   5.2728

     occupation numbers 
     1.0000   1.0000   1.0000   1.0000  -0.0000  -0.0000  -0.0000  -0.0000

          k = 0.1667 0.3849 0.0000 (  6463 PWs)   bands (ev):

   -20.7128 -13.7515 -11.7286  -8.3212   0.1799   3.2388   4.1096   5.7934

     occupation numbers 
     1.0000   1.0000   1.0000   1.0000  -0.0000  -0.0000  -0.0000  -0.0000

          k = 0.1667 0.4170 0.0000 (  6461 PWs)   bands (ev):

   -20.2814 -14.3874 -11.9680  -7.8523  -0.4792   3.8470   4.7027   5.8899

     occupation numbers 
     1.0000   1.0000   1.0000   1.0000  -0.0000  -0.0000  -0.0000  -0.0000

          k = 0.1667 0.4491 0.0000 (  6451 PWs)   bands (ev):

   -19.8220 -15.0281 -12.1588  -7.3717  -1.1225   4.4993   5.3287   5.8316

     occupation numbers 
     1.0000   1.0000   1.0000   1.0000  -0.0000  -0.0000  -0.0000  -0.0000

          k = 0.1667 0.4811 0.0000 (  6449 PWs)   bands (ev):

   -19.3390 -15.6599 -12.3046  -6.8975  -1.7278   5.1884   5.7805   5.9733

     occupation numbers 
     1.0000   1.0000   1.0000   1.0000  -0.0000  -0.0000  -0.0000  -0.0000

          k = 0.1667 0.5132 0.0000 (  6429 PWs)   bands (ev):

   -18.8429 -16.2661 -12.4077  -6.4639  -2.2576   5.6824   5.9775   6.6032

     occupation numbers 
     1.0000   1.0000   1.0000   1.0000  -0.0000  -0.0000  -0.0000  -0.0000

          k = 0.1667 0.5453 0.0000 (  6420 PWs)   bands (ev):

   -18.3701 -16.8065 -12.4691  -6.1352  -2.6451   5.6784   6.7224   7.1304

     occupation numbers 
     1.0000   1.0000   1.0000   1.0000  -0.0000  -0.0000  -0.0000  -0.0000

          k = 0.1667 0.5774 0.0000 (  6432 PWs)   bands (ev):

   -18.1089 -17.0904 -12.4895  -6.0070  -2.7931   5.6708   7.4233   7.6218

     occupation numbers 
     1.0000   1.0000   1.0000   1.0000  -0.0000  -0.0000  -0.0000  -0.0000

          k = 0.1944 0.3368 0.0000 (  6445 PWs)   bands (ev):

   -21.1315 -13.0094 -11.5465  -8.7864   0.8906   2.6525   3.5283   5.2534

     occupation numbers 
     1.0000   1.0000   1.0000   1.0000  -0.0000  -0.0000  -0.0000  -0.0000

          k = 0.1944 0.3689 0.0000 (  6445 PWs)   bands (ev):

   -20.7477 -13.5151 -11.9459  -8.3558   0.2746   3.1904   4.0536   5.7945

     occupation numbers 
     1.0000   1.0000   1.0000   1.0000  -0.0000  -0.0000  -0.0000  -0.0000

          k = 0.1944 0.4009 0.0000 (  6459 PWs)   bands (ev):

   -20.3332 -14.0707 -12.2699  -7.8991  -0.3490   3.7748   4.6171   6.3622

     occupation numbers 
     1.0000   1.0000   1.0000   1.0000  -0.0000  -0.0000  -0.0000  -0.0000

          k = 0.1944 0.4330 0.0000 (  6465 PWs)   bands (ev):

   -19.8897 -14.6603 -12.5233  -7.4239  -0.9697   4.4044   5.2103   6.5899

     occupation numbers 
     1.0000   1.0000   1.0000   1.0000  -0.0000  -0.0000  -0.0000  -0.0000

          k = 0.1944 0.4651 0.0000 (  6453 PWs)   bands (ev):

   -19.4205 -15.2642 -12.7157  -6.9427  -1.5719   5.0765   5.8152   6.5433

     occupation numbers 
     1.0000   1.0000   1.0000   1.0000  -0.0000  -0.0000  -0.0000  -0.0000

          k = 0.1944 0.4972 0.0000 (  6436 PWs)   bands (ev):

   -18.9323 -15.8629 -12.8546  -6.4788  -2.1296   5.7844   6.3913   6.4963

     occupation numbers 
     1.0000   1.0000   1.0000   1.0000  -0.0000  -0.0000  -0.0000  -0.0000

          k = 0.1944 0.5292 0.0000 (  6427 PWs)   bands (ev):

   -18.4432 -16.4297 -12.9450  -6.0782  -2.5942   6.3878   6.6015   6.8534

     occupation numbers 
     1.0000   1.0000   1.0000   1.0000  -0.0000  -0.0000  -0.0000  -0.0000

          k = 0.1944 0.5613 0.0000 (  6436 PWs)   bands (ev):

   -18.0340 -16.8790 -12.9897  -5.8274  -2.8774   6.4115   7.0978   7.3210

     occupation numbers 
     1.0000   1.0000   1.0000   1.0000  -0.0000  -0.0000  -0.0000  -0.0000

          k = 0.2222 0.3849 0.0000 (  6457 PWs)   bands (ev):

   -20.3504 -13.9344 -12.4020  -7.9148  -0.3036   3.7507   4.5882   6.3607

     occupation numbers 
     1.0000   1.0000   1.0000   1.0000  -0.0000  -0.0000  -0.0000  -0.0000

          k = 0.2222 0.4170 0.0000 (  6457 PWs)   bands (ev):

   -19.9236 -14.4082 -12.7757  -7.4505  -0.8878   4.3563   5.1495   6.9593

     occupation numbers 
     1.0000   1.0000   1.0000   1.0000  -0.0000  -0.0000  -0.0000  -0.0000

          k = 0.2222 0.4491 0.0000 (  6459 PWs)   bands (ev):

   -19.4699 -14.9326 -13.0596  -6.9714  -1.4681   5.0053   5.7156   7.3110

     occupation numbers 
     1.0000   1.0000   1.0000   1.0000  -0.0000  -0.0000  -0.0000  -0.0000

          k = 0.2222 0.4811 0.0000 (  6448 PWs)   bands (ev):

   -18.9938 -15.4867 -13.2635  -6.4926  -2.0279   5.6940   6.2381   7.2770

     occupation numbers 
     1.0000   1.0000   1.0000   1.0000  -0.0000  -0.0000  -0.0000  -0.0000

          k = 0.2222 0.5132 0.0000 (  6433 PWs)   bands (ev):

   -18.5057 -16.0425 -13.4003  -6.0441  -2.5357   6.4138   6.6298   7.2333

     occupation numbers 
     1.0000   1.0000   1.0000   1.0000  -0.0000  -0.0000  -0.0000  -0.0000

          k = 0.2222 0.5453 0.0000 (  6424 PWs)   bands (ev):

   -18.0407 -16.5526 -13.4792  -5.6900  -2.9260   6.8314   7.0837   7.2759

     occupation numbers 
     1.0000   1.0000   1.0000   1.0000  -0.0000  -0.0000  -0.0000  -0.0000

          k = 0.2222 0.5774 0.0000 (  6440 PWs)   bands (ev):

   -17.7820 -16.8269 -13.5050  -5.5457  -3.0825   6.8857   7.1580   7.8221

     occupation numbers 
     1.0000   1.0000   1.0000   1.0000  -0.0000  -0.0000  -0.0000  -0.0000

          k = 0.2500 0.4330 0.0000 (  6451 PWs)   bands (ev):

   -19.4864 -14.7877 -13.2092  -6.9812  -1.4316   4.9814   5.6815   7.5829

     occupation numbers 
     1.0000   1.0000   1.0000   1.0000  -0.0000  -0.0000  -0.0000  -0.0000

          k = 0.2500 0.4651 0.0000 (  6443 PWs)   bands (ev):

   -19.0250 -15.2245 -13.5432  -6.5007  -1.9715   5.6468   6.1570   8.0106

     occupation numbers 
     1.0000   1.0000   1.0000   1.0000  -0.0000  -0.0000  -0.0000  -0.0000

          k = 0.2500 0.4972 0.0000 (  6433 PWs)   bands (ev):

   -18.5461 -15.7092 -13.7744  -6.0267  -2.4903   6.3463   6.4840   7.9833

     occupation numbers 
     1.0000   1.0000   1.0000   1.0000  -0.0000  -0.0000  -0.0000  -0.0000

          k = 0.2500 0.5292 0.0000 (  6436 PWs)   bands (ev):

   -18.0668 -16.2066 -13.9166  -5.5984  -2.9487   6.6273   7.0657   7.9383

     occupation numbers 
     1.0000   1.0000   1.0000   1.0000  -0.0000  -0.0000  -0.0000  -0.0000

          k = 0.2500 0.5613 0.0000 (  6447 PWs)   bands (ev):

   -17.6618 -16.6249 -13.9839  -5.3097  -3.2525   6.6651   7.7346   7.9427

     occupation numbers 
     1.0000   1.0000   1.0000   1.0000  -0.0000  -0.0000  -0.0000  -0.0000

          k = 0.2778 0.4811 0.0000 (  6439 PWs)   bands (ev):

   -18.5599 -15.5614 -13.9358  -6.0215  -2.4733   6.3229   6.4332   8.2428

     occupation numbers 
     1.0000   1.0000   1.0000   1.0000  -0.0000  -0.0000  -0.0000  -0.0000

          k = 0.2778 0.5132 0.0000 (  6445 PWs)   bands (ev):

   -18.0844 -15.9552 -14.2103  -5.5529  -2.9564   6.5179   7.0220   8.5589

     occupation numbers 
     1.0000   1.0000   1.0000   1.0000  -0.0000  -0.0000  -0.0000  -0.0000

          k = 0.2778 0.5453 0.0000 (  6449 PWs)   bands (ev):

   -17.6283 -16.3730 -14.3658  -5.1466  -3.3708   6.5124   7.7144   8.4937

     occupation numbers 
     1.0000   1.0000   1.0000   1.0000  -0.0000  -0.0000  -0.0000  -0.0000

          k = 0.2778 0.5774 0.0000 (  6436 PWs)   bands (ev):

   -17.3626 -16.6283 -14.4154  -4.9570  -3.5630   6.5021   8.2608   8.3296

     occupation numbers 
     1.0000   1.0000   1.0000   1.0000  -0.0000  -0.0000  -0.0000  -0.0000

          k = 0.3056 0.5292 0.0000 (  6439 PWs)   bands (ev):

   -17.6231 -16.2506 -14.5258  -5.0871  -3.4144   6.4585   7.6949   8.7565

     occupation numbers 
     1.0000   1.0000   1.0000   1.0000  -0.0000  -0.0000  -0.0000  -0.0000

          k = 0.3056 0.5613 0.0000 (  6436 PWs)   bands (ev):

   -17.2123 -16.5749 -14.6879  -4.6939  -3.8031   6.4087   8.2909   8.6748

     occupation numbers 
     1.0000   1.0000   1.0000   1.0000  -0.0000  -0.0000  -0.0000  -0.0000

          k = 0.3333 0.5774 0.0000 (  6426 PWs)   bands (ev):

   -16.8517 -16.8517 -14.8081  -4.2448  -4.2448   6.3695   8.6243   8.6243

     occupation numbers 
     1.0000   1.0000   1.0000   0.5000   0.5000  -0.0000  -0.0000  -0.0000

     the Fermi energy is    -4.2448 ev

!    total energy              =     -36.88804580 Ry

     total all-electron energy =      -152.416241 Ry
     estimated scf accuracy    <          8.5E-15 Ry
     smearing contrib. (-TS)   =      -0.00000868 Ry
     internal energy E=F+TS    =     -36.88803712 Ry

     The total energy is F=E-TS. E is the sum of the following terms:
     one-electron contribution =    -256.05977839 Ry
     hartree contribution      =     128.90659805 Ry
     xc contribution           =      -9.27187690 Ry
     ewald contribution        =     111.87097187 Ry
     one-center paw contrib.   =     -12.33395175 Ry
      -> PAW hartree energy AE =       9.39920343 Ry
      -> PAW hartree energy PS =      -9.39055850 Ry
      -> PAW xc energy AE      =     -10.65251846 Ry
      -> PAW xc energy PS      =       4.47689766 Ry
      -> total E_H with PAW    =     128.91524298 Ry
      -> total E_XC with PAW   =     -15.44749771 Ry

     convergence has been achieved in   9 iterations

     negative rho (up, down):  7.892E-05 0.000E+00

     Forces acting on atoms (cartesian axes, Ry/au):

     atom    1 type  1   force =     0.00000000    0.00000000    0.00000000
     atom    2 type  1   force =     0.00000000    0.00000000    0.00000000
     The non-local contrib.  to forces
     atom    1 type  1   force =     0.00000000   -0.00000000    0.00000000
     atom    2 type  1   force =     0.00000000    0.00000000    0.00000000
     The ionic contribution  to forces
     atom    1 type  1   force =     0.00000000    0.00000000    0.00000000
     atom    2 type  1   force =    -0.00000000   -0.00000000    0.00000000
     The local contribution  to forces
     atom    1 type  1   force =     0.00000000   -0.00000000    0.00000000
     atom    2 type  1   force =    -0.00000000    0.00000000    0.00000000
     The core correction contribution to forces
     atom    1 type  1   force =    -0.00000000    0.00000000   -0.00000000
     atom    2 type  1   force =     0.00000000   -0.00000000   -0.00000000
     The Hubbard contrib.    to forces
     atom    1 type  1   force =     0.00000000    0.00000000    0.00000000
     atom    2 type  1   force =     0.00000000    0.00000000    0.00000000
     The SCF correction term to forces
     atom    1 type  1   force =     0.00000000    0.00000000    0.00000000
     atom    2 type  1   force =    -0.00000000   -0.00000000    0.00000000

     Total force =     0.000000     Total SCF correction =     0.000000


     Computing stress (Cartesian axis) and pressure


     negative rho (up, down):  7.892E-05 0.000E+00
          total   stress  (Ry/bohr**3)                   (kbar)     P=       -0.02
   0.00000001   0.00000000   0.00000000            0.00        0.00        0.00
   0.00000000   0.00000001   0.00000000            0.00        0.00        0.00
   0.00000000   0.00000000  -0.00000051            0.00        0.00       -0.07

     kinetic stress (kbar)   2578.60     -0.00      0.00
                               -0.00   2578.60      0.00
                                0.00      0.00   2927.93

     local   stress (kbar) -74156.80     -0.00      0.00
                               -0.00 -74156.80      0.00
                                0.00      0.00  73970.03

     nonloc. stress (kbar)    654.19      0.00      0.00
                                0.00    654.19      0.00
                                0.00      0.00    597.08

     hartree stress (kbar)  35307.01     -0.00     -0.00
                               -0.00  35307.01     -0.00
                               -0.00     -0.00 -35077.35

     exc-cor stress (kbar)    -46.11      0.00      0.00
                                0.00    -46.11      0.00
                                0.00      0.00    -75.46

     corecor stress (kbar)   -622.41     -0.00      0.00
                               -0.00   -622.41     -0.00
                                0.00     -0.00   -611.60

     ewald   stress (kbar)  36285.52      0.00      0.00
                                0.00  36285.52      0.00
                                0.00      0.00 -41730.71

     hubbard stress (kbar)      0.00      0.00      0.00
                                0.00      0.00      0.00
                                0.00      0.00      0.00

     DFT-D   stress (kbar)      0.00      0.00      0.00
                                0.00      0.00      0.00
                                0.00      0.00      0.00

     XDM     stress (kbar)      0.00      0.00      0.00
                                0.00      0.00      0.00
                                0.00      0.00      0.00

     dft-nl  stress (kbar)      0.00      0.00      0.00
                                0.00      0.00      0.00
                                0.00      0.00      0.00

     TS-vdW  stress (kbar)      0.00      0.00      0.00
                                0.00      0.00      0.00
                                0.00      0.00      0.00


                                0.00      0.00      0.00
                                0.00      0.00      0.00


                                0.00      0.00      0.00


     Writing all to output data dir ./graphene.save/
 
     init_run     :      4.15s CPU      4.64s WALL (       1 calls)
     electrons    :     30.78s CPU     37.01s WALL (       1 calls)
     forces       :      1.17s CPU      1.19s WALL (       1 calls)
     stress       :      0.82s CPU      0.85s WALL (       1 calls)

     Called by init_run:
     wfcinit      :      0.16s CPU      0.18s WALL (       1 calls)
     wfcinit:atom :      0.01s CPU      0.01s WALL (      10 calls)
     wfcinit:wfcr :      0.14s CPU      0.15s WALL (      10 calls)
     potinit      :      2.10s CPU      2.27s WALL (       1 calls)
     hinit0       :      0.46s CPU      0.67s WALL (       1 calls)

     Called by electrons:
     c_bands      :     16.79s CPU     20.77s WALL (       9 calls)
     sum_band     :      4.25s CPU      4.69s WALL (       9 calls)
     v_of_rho     :      2.07s CPU      2.41s WALL (      10 calls)
     v_h          :      0.10s CPU      0.11s WALL (      10 calls)
     v_xc         :      2.31s CPU      2.66s WALL (      12 calls)
     newd         :      1.25s CPU      1.29s WALL (      10 calls)
     PAW_pot      :      4.91s CPU      6.15s WALL (      10 calls)
     mix_rho      :      0.08s CPU      0.09s WALL (       9 calls)

     Called by c_bands:
     init_us_2    :      0.20s CPU      0.30s WALL (     210 calls)
     init_us_2:cp :      0.20s CPU      0.30s WALL (     210 calls)
     cegterg      :      4.56s CPU      7.76s WALL (      90 calls)

     Called by sum_band:
     sum_band:wei :      0.33s CPU      0.41s WALL (       9 calls)
     sum_band:loo :      0.71s CPU      0.73s WALL (       9 calls)
     sum_band:buf :      0.03s CPU      0.03s WALL (      90 calls)
     sum_band:ini :      0.07s CPU      0.08s WALL (      90 calls)
     sum_band:cal :      0.05s CPU      0.05s WALL (      90 calls)
     sum_band:bec :      0.00s CPU      0.00s WALL (      90 calls)
     addusdens    :      0.37s CPU      0.38s WALL (       9 calls)
     addusd:skk   :      0.00s CPU      0.00s WALL (       9 calls)
     addusd:dgemm :      0.03s CPU      0.03s WALL (       9 calls)
     addusd:qvan2 :      0.02s CPU      0.02s WALL (       9 calls)

     Called by *egterg:
     cdiaghg      :      0.06s CPU      0.06s WALL (     490 calls)
     cegterg:over :      0.18s CPU      0.18s WALL (     400 calls)
     cegterg:upda :      0.13s CPU      0.20s WALL (     400 calls)
     cegterg:last :      0.22s CPU      0.24s WALL (     230 calls)
     h_psi        :      3.85s CPU      6.77s WALL (     500 calls)
     s_psi        :      0.07s CPU      0.14s WALL (     500 calls)
     g_psi        :      0.05s CPU      0.05s WALL (     400 calls)

     Called by h_psi:
     h_psi:calbec :      0.25s CPU      0.33s WALL (     500 calls)
     vloc_psi     :      3.39s CPU      6.23s WALL (     500 calls)
     add_vuspsi   :      0.15s CPU      0.15s WALL (     500 calls)

     General routines
     calbec       :      0.30s CPU      0.38s WALL (     640 calls)
     fft          :      0.90s CPU      1.21s WALL (     153 calls)
     ffts         :      0.20s CPU      0.33s WALL (      19 calls)
     fftw         :      3.04s CPU      5.36s WALL (    5202 calls)
     interpolate  :      0.12s CPU      0.14s WALL (      10 calls)
 
     Parallel routines

     PAW routines
     PAW_pot      :      4.91s CPU      6.15s WALL (      10 calls)
     PAW_symme    :      0.93s CPU      0.95s WALL (      19 calls)
 
     PWSCF        :     37.73s CPU     47.45s WALL

 
   This run was terminated on:  23:29:13  24Jun2022            

=------------------------------------------------------------------------------=
   JOB DONE.
=------------------------------------------------------------------------------=
