 
             +---------------------------------------------------+
             |                                                   |
             |                   WANNIER90                       |
             |                                                   |
             +---------------------------------------------------+
             |                                                   |
             |        Welcome to the Maximally-Localized         |
             |        Generalized Wannier Functions code         |
             |            http://www.wannier.org                 |
             |                                                   |
             |                                                   |
             |  Wannier90 Developer Group:                       |
             |    Giovanni Pizzi    (EPFL)                       |
             |    Valerio Vitale    (Cambridge)                  |
             |    David Vanderbilt  (Rutgers University)         |
             |    Nicola Marzari    (EPFL)                       |
             |    Ivo Souza         (Universidad del Pais Vasco) |
             |    Arash A. Mostofi  (Imperial College London)    |
             |    Jonathan R. Yates (University of Oxford)       |
             |                                                   |
             |  For the full list of Wannier90 3.x authors,      |
             |  please check the code documentation and the      |
             |  README on the GitHub page of the code            |
             |                                                   |
             |                                                   |
             |  Please cite                                      |
             |                                                   |
             |  [ref] "Wannier90 as a community code:            |
             |        new features and applications",            |
             |        G. Pizzi et al., J. Phys. Cond. Matt. 32,  |
             |        165902 (2020).                             |
             |        http://doi.org/10.1088/1361-648X/ab51ff    |
             |                                                   |
             |  in any publications arising from the use of      |
             |  this code. For the method please cite            |
             |                                                   |
             |  [ref] "Maximally Localized Generalised Wannier   |
             |         Functions for Composite Energy Bands"     |
             |         N. Marzari and D. Vanderbilt              |
             |         Phys. Rev. B 56 12847 (1997)              |
             |                                                   |
             |  [ref] "Maximally Localized Wannier Functions     |
             |         for Entangled Energy Bands"               |
             |         I. Souza, N. Marzari and D. Vanderbilt    |
             |         Phys. Rev. B 65 035109 (2001)             |
             |                                                   |
             |                                                   |
             | Copyright (c) 1996-2020                           |
             |        The Wannier90 Developer Group and          |
             |        individual contributors                    |
             |                                                   |
             |      Release: 3.1.0        5th March    2020      |
             |                                                   |
             | This program is free software; you can            |
             | redistribute it and/or modify it under the terms  |
             | of the GNU General Public License as published by |
             | the Free Software Foundation; either version 2 of |
             | the License, or (at your option) any later version|
             |                                                   |
             | This program is distributed in the hope that it   |
             | will be useful, but WITHOUT ANY WARRANTY; without |
             | even the implied warranty of MERCHANTABILITY or   |
             | FITNESS FOR A PARTICULAR PURPOSE. See the GNU     |
             | General Public License for more details.          |
             |                                                   |
             | You should have received a copy of the GNU General|
             | Public License along with this program; if not,   |
             | write to the Free Software Foundation, Inc.,      |
             | 675 Mass Ave, Cambridge, MA 02139, USA.           |
             |                                                   |
             +---------------------------------------------------+
             |    Execution started on 25Jun2022 at 21:03:39     |
             +---------------------------------------------------+
 
 ******************************************************************************
 * -> Using CODATA 2006 constant values                                       *
 *    (http://physics.nist.gov/cuu/Constants/index.html)                      *
 * -> Using Bohr value from CODATA                                            *
 ******************************************************************************
 

 Wannier90 is running in LIBRARY MODE

 Setting up k-point neighbours...

 
                                    ------
                                    SYSTEM
                                    ------
 
                              Lattice Vectors (Ang)
                    a_1     2.467197   0.000000   0.000000
                    a_2    -1.233599   2.136655   0.000000
                    a_3     0.000000   0.000000  20.000000
 
                   Unit Cell Volume:     105.43100  (Ang^3)
 
                        Reciprocal-Space Vectors (Ang^-1)
                    b_1     2.546690   1.470332   0.000000
                    b_2     0.000000   2.940664   0.000000
                    b_3     0.000000   0.000000   0.314159
  
 *----------------------------------------------------------------------------*
 |   Site       Fractional Coordinate          Cartesian Coordinate (Ang)     |
 +----------------------------------------------------------------------------+
 | C    1   0.33333   0.66667   0.50000   |   -0.00000   1.42444  10.00000    |
 | C    2   0.66667   0.33333   0.50000   |    1.23360   0.71222  10.00000    |
 *----------------------------------------------------------------------------*
                                -----------
                                PROJECTIONS
                                -----------
  
 +----------------------------------------------------------------------------+
 |     Frac. Coord.   l mr  r        z-axis               x-axis          Z/a |
 +----------------------------------------------------------------------------+
 |  0.33  0.67  0.50  1  1  1  0.000  0.000  1.000  1.000  0.000  0.000   1.0 |
 |  0.67  0.33  0.50  1  1  1  0.000  0.000  1.000  1.000  0.000  0.000   1.0 |
 +----------------------------------------------------------------------------+
  
                                ------------
                                K-POINT GRID
                                ------------
  
             Grid size = 36 x 36 x  1      Total points = 1296
  
 *----------------------------------------------------------------------------*
 | k-point      Fractional Coordinate        Cartesian Coordinate (Ang^-1)    |
 +----------------------------------------------------------------------------+
 |     1    0.00000   0.00000   0.00000   |    0.00000   0.00000   0.00000    |
 |     2    0.00000   0.02778   0.00000   |    0.00000   0.08169   0.00000    |
 |     3    0.00000   0.05556   0.00000   |    0.00000   0.16337   0.00000    |
 |     4    0.00000   0.08333   0.00000   |    0.00000   0.24506   0.00000    |
 |     5    0.00000   0.11111   0.00000   |    0.00000   0.32674   0.00000    |
 |     6    0.00000   0.13889   0.00000   |    0.00000   0.40843   0.00000    |
 |     7    0.00000   0.16667   0.00000   |    0.00000   0.49011   0.00000    |
 |     8    0.00000   0.19444   0.00000   |    0.00000   0.57180   0.00000    |
 |     9    0.00000   0.22222   0.00000   |    0.00000   0.65348   0.00000    |
 |    10    0.00000   0.25000   0.00000   |    0.00000   0.73517   0.00000    |
 |    11    0.00000   0.27778   0.00000   |    0.00000   0.81685   0.00000    |
 |    12    0.00000   0.30556   0.00000   |    0.00000   0.89854   0.00000    |
 |    13    0.00000   0.33333   0.00000   |    0.00000   0.98022   0.00000    |
 |    14    0.00000   0.36111   0.00000   |    0.00000   1.06191   0.00000    |
 |    15    0.00000   0.38889   0.00000   |    0.00000   1.14359   0.00000    |
 |    16    0.00000   0.41667   0.00000   |    0.00000   1.22528   0.00000    |
 |    17    0.00000   0.44444   0.00000   |    0.00000   1.30696   0.00000    |
 |    18    0.00000   0.47222   0.00000   |    0.00000   1.38865   0.00000    |
 |    19    0.00000   0.50000   0.00000   |    0.00000   1.47033   0.00000    |
 |    20    0.00000   0.52778   0.00000   |    0.00000   1.55202   0.00000    |
 |    21    0.00000   0.55556   0.00000   |    0.00000   1.63370   0.00000    |
 |    22    0.00000   0.58333   0.00000   |    0.00000   1.71539   0.00000    |
 |    23    0.00000   0.61111   0.00000   |    0.00000   1.79707   0.00000    |
 |    24    0.00000   0.63889   0.00000   |    0.00000   1.87876   0.00000    |
 |    25    0.00000   0.66667   0.00000   |    0.00000   1.96044   0.00000    |
 |    26    0.00000   0.69444   0.00000   |    0.00000   2.04213   0.00000    |
 |    27    0.00000   0.72222   0.00000   |    0.00000   2.12381   0.00000    |
 |    28    0.00000   0.75000   0.00000   |    0.00000   2.20550   0.00000    |
 |    29    0.00000   0.77778   0.00000   |    0.00000   2.28718   0.00000    |
 |    30    0.00000   0.80556   0.00000   |    0.00000   2.36887   0.00000    |
 |    31    0.00000   0.83333   0.00000   |    0.00000   2.45055   0.00000    |
 |    32    0.00000   0.86111   0.00000   |    0.00000   2.53224   0.00000    |
 |    33    0.00000   0.88889   0.00000   |    0.00000   2.61392   0.00000    |
 |    34    0.00000   0.91667   0.00000   |    0.00000   2.69561   0.00000    |
 |    35    0.00000   0.94444   0.00000   |    0.00000   2.77729   0.00000    |
 |    36    0.00000   0.97222   0.00000   |    0.00000   2.85898   0.00000    |
 |    37    0.02778   0.00000   0.00000   |    0.07074   0.04084   0.00000    |
 |    38    0.02778   0.02778   0.00000   |    0.07074   0.12253   0.00000    |
 |    39    0.02778   0.05556   0.00000   |    0.07074   0.20421   0.00000    |
 |    40    0.02778   0.08333   0.00000   |    0.07074   0.28590   0.00000    |
 |    41    0.02778   0.11111   0.00000   |    0.07074   0.36758   0.00000    |
 |    42    0.02778   0.13889   0.00000   |    0.07074   0.44927   0.00000    |
 |    43    0.02778   0.16667   0.00000   |    0.07074   0.53095   0.00000    |
 |    44    0.02778   0.19444   0.00000   |    0.07074   0.61264   0.00000    |
 |    45    0.02778   0.22222   0.00000   |    0.07074   0.69432   0.00000    |
 |    46    0.02778   0.25000   0.00000   |    0.07074   0.77601   0.00000    |
 |    47    0.02778   0.27778   0.00000   |    0.07074   0.85769   0.00000    |
 |    48    0.02778   0.30556   0.00000   |    0.07074   0.93938   0.00000    |
 |    49    0.02778   0.33333   0.00000   |    0.07074   1.02106   0.00000    |
 |    50    0.02778   0.36111   0.00000   |    0.07074   1.10275   0.00000    |
 |    51    0.02778   0.38889   0.00000   |    0.07074   1.18443   0.00000    |
 |    52    0.02778   0.41667   0.00000   |    0.07074   1.26612   0.00000    |
 |    53    0.02778   0.44444   0.00000   |    0.07074   1.34780   0.00000    |
 |    54    0.02778   0.47222   0.00000   |    0.07074   1.42949   0.00000    |
 |    55    0.02778   0.50000   0.00000   |    0.07074   1.51117   0.00000    |
 |    56    0.02778   0.52778   0.00000   |    0.07074   1.59286   0.00000    |
 |    57    0.02778   0.55556   0.00000   |    0.07074   1.67454   0.00000    |
 |    58    0.02778   0.58333   0.00000   |    0.07074   1.75623   0.00000    |
 |    59    0.02778   0.61111   0.00000   |    0.07074   1.83791   0.00000    |
 |    60    0.02778   0.63889   0.00000   |    0.07074   1.91960   0.00000    |
 |    61    0.02778   0.66667   0.00000   |    0.07074   2.00129   0.00000    |
 |    62    0.02778   0.69444   0.00000   |    0.07074   2.08297   0.00000    |
 |    63    0.02778   0.72222   0.00000   |    0.07074   2.16466   0.00000    |
 |    64    0.02778   0.75000   0.00000   |    0.07074   2.24634   0.00000    |
 |    65    0.02778   0.77778   0.00000   |    0.07074   2.32803   0.00000    |
 |    66    0.02778   0.80556   0.00000   |    0.07074   2.40971   0.00000    |
 |    67    0.02778   0.83333   0.00000   |    0.07074   2.49140   0.00000    |
 |    68    0.02778   0.86111   0.00000   |    0.07074   2.57308   0.00000    |
 |    69    0.02778   0.88889   0.00000   |    0.07074   2.65477   0.00000    |
 |    70    0.02778   0.91667   0.00000   |    0.07074   2.73645   0.00000    |
 |    71    0.02778   0.94444   0.00000   |    0.07074   2.81814   0.00000    |
 |    72    0.02778   0.97222   0.00000   |    0.07074   2.89982   0.00000    |
 |    73    0.05556   0.00000   0.00000   |    0.14148   0.08169   0.00000    |
 |    74    0.05556   0.02778   0.00000   |    0.14148   0.16337   0.00000    |
 |    75    0.05556   0.05556   0.00000   |    0.14148   0.24506   0.00000    |
 |    76    0.05556   0.08333   0.00000   |    0.14148   0.32674   0.00000    |
 |    77    0.05556   0.11111   0.00000   |    0.14148   0.40843   0.00000    |
 |    78    0.05556   0.13889   0.00000   |    0.14148   0.49011   0.00000    |
 |    79    0.05556   0.16667   0.00000   |    0.14148   0.57180   0.00000    |
 |    80    0.05556   0.19444   0.00000   |    0.14148   0.65348   0.00000    |
 |    81    0.05556   0.22222   0.00000   |    0.14148   0.73517   0.00000    |
 |    82    0.05556   0.25000   0.00000   |    0.14148   0.81685   0.00000    |
 |    83    0.05556   0.27778   0.00000   |    0.14148   0.89854   0.00000    |
 |    84    0.05556   0.30556   0.00000   |    0.14148   0.98022   0.00000    |
 |    85    0.05556   0.33333   0.00000   |    0.14148   1.06191   0.00000    |
 |    86    0.05556   0.36111   0.00000   |    0.14148   1.14359   0.00000    |
 |    87    0.05556   0.38889   0.00000   |    0.14148   1.22528   0.00000    |
 |    88    0.05556   0.41667   0.00000   |    0.14148   1.30696   0.00000    |
 |    89    0.05556   0.44444   0.00000   |    0.14148   1.38865   0.00000    |
 |    90    0.05556   0.47222   0.00000   |    0.14148   1.47033   0.00000    |
 |    91    0.05556   0.50000   0.00000   |    0.14148   1.55202   0.00000    |
 |    92    0.05556   0.52778   0.00000   |    0.14148   1.63370   0.00000    |
 |    93    0.05556   0.55556   0.00000   |    0.14148   1.71539   0.00000    |
 |    94    0.05556   0.58333   0.00000   |    0.14148   1.79707   0.00000    |
 |    95    0.05556   0.61111   0.00000   |    0.14148   1.87876   0.00000    |
 |    96    0.05556   0.63889   0.00000   |    0.14148   1.96044   0.00000    |
 |    97    0.05556   0.66667   0.00000   |    0.14148   2.04213   0.00000    |
 |    98    0.05556   0.69444   0.00000   |    0.14148   2.12381   0.00000    |
 |    99    0.05556   0.72222   0.00000   |    0.14148   2.20550   0.00000    |
 |   100    0.05556   0.75000   0.00000   |    0.14148   2.28718   0.00000    |
 |   101    0.05556   0.77778   0.00000   |    0.14148   2.36887   0.00000    |
 |   102    0.05556   0.80556   0.00000   |    0.14148   2.45055   0.00000    |
 |   103    0.05556   0.83333   0.00000   |    0.14148   2.53224   0.00000    |
 |   104    0.05556   0.86111   0.00000   |    0.14148   2.61392   0.00000    |
 |   105    0.05556   0.88889   0.00000   |    0.14148   2.69561   0.00000    |
 |   106    0.05556   0.91667   0.00000   |    0.14148   2.77729   0.00000    |
 |   107    0.05556   0.94444   0.00000   |    0.14148   2.85898   0.00000    |
 |   108    0.05556   0.97222   0.00000   |    0.14148   2.94066   0.00000    |
 |   109    0.08333   0.00000   0.00000   |    0.21222   0.12253   0.00000    |
 |   110    0.08333   0.02778   0.00000   |    0.21222   0.20421   0.00000    |
 |   111    0.08333   0.05556   0.00000   |    0.21222   0.28590   0.00000    |
 |   112    0.08333   0.08333   0.00000   |    0.21222   0.36758   0.00000    |
 |   113    0.08333   0.11111   0.00000   |    0.21222   0.44927   0.00000    |
 |   114    0.08333   0.13889   0.00000   |    0.21222   0.53095   0.00000    |
 |   115    0.08333   0.16667   0.00000   |    0.21222   0.61264   0.00000    |
 |   116    0.08333   0.19444   0.00000   |    0.21222   0.69432   0.00000    |
 |   117    0.08333   0.22222   0.00000   |    0.21222   0.77601   0.00000    |
 |   118    0.08333   0.25000   0.00000   |    0.21222   0.85769   0.00000    |
 |   119    0.08333   0.27778   0.00000   |    0.21222   0.93938   0.00000    |
 |   120    0.08333   0.30556   0.00000   |    0.21222   1.02106   0.00000    |
 |   121    0.08333   0.33333   0.00000   |    0.21222   1.10275   0.00000    |
 |   122    0.08333   0.36111   0.00000   |    0.21222   1.18443   0.00000    |
 |   123    0.08333   0.38889   0.00000   |    0.21222   1.26612   0.00000    |
 |   124    0.08333   0.41667   0.00000   |    0.21222   1.34780   0.00000    |
 |   125    0.08333   0.44444   0.00000   |    0.21222   1.42949   0.00000    |
 |   126    0.08333   0.47222   0.00000   |    0.21222   1.51117   0.00000    |
 |   127    0.08333   0.50000   0.00000   |    0.21222   1.59286   0.00000    |
 |   128    0.08333   0.52778   0.00000   |    0.21222   1.67454   0.00000    |
 |   129    0.08333   0.55556   0.00000   |    0.21222   1.75623   0.00000    |
 |   130    0.08333   0.58333   0.00000   |    0.21222   1.83791   0.00000    |
 |   131    0.08333   0.61111   0.00000   |    0.21222   1.91960   0.00000    |
 |   132    0.08333   0.63889   0.00000   |    0.21222   2.00129   0.00000    |
 |   133    0.08333   0.66667   0.00000   |    0.21222   2.08297   0.00000    |
 |   134    0.08333   0.69444   0.00000   |    0.21222   2.16466   0.00000    |
 |   135    0.08333   0.72222   0.00000   |    0.21222   2.24634   0.00000    |
 |   136    0.08333   0.75000   0.00000   |    0.21222   2.32803   0.00000    |
 |   137    0.08333   0.77778   0.00000   |    0.21222   2.40971   0.00000    |
 |   138    0.08333   0.80556   0.00000   |    0.21222   2.49140   0.00000    |
 |   139    0.08333   0.83333   0.00000   |    0.21222   2.57308   0.00000    |
 |   140    0.08333   0.86111   0.00000   |    0.21222   2.65477   0.00000    |
 |   141    0.08333   0.88889   0.00000   |    0.21222   2.73645   0.00000    |
 |   142    0.08333   0.91667   0.00000   |    0.21222   2.81814   0.00000    |
 |   143    0.08333   0.94444   0.00000   |    0.21222   2.89982   0.00000    |
 |   144    0.08333   0.97222   0.00000   |    0.21222   2.98151   0.00000    |
 |   145    0.11111   0.00000   0.00000   |    0.28297   0.16337   0.00000    |
 |   146    0.11111   0.02778   0.00000   |    0.28297   0.24506   0.00000    |
 |   147    0.11111   0.05556   0.00000   |    0.28297   0.32674   0.00000    |
 |   148    0.11111   0.08333   0.00000   |    0.28297   0.40843   0.00000    |
 |   149    0.11111   0.11111   0.00000   |    0.28297   0.49011   0.00000    |
 |   150    0.11111   0.13889   0.00000   |    0.28297   0.57180   0.00000    |
 |   151    0.11111   0.16667   0.00000   |    0.28297   0.65348   0.00000    |
 |   152    0.11111   0.19444   0.00000   |    0.28297   0.73517   0.00000    |
 |   153    0.11111   0.22222   0.00000   |    0.28297   0.81685   0.00000    |
 |   154    0.11111   0.25000   0.00000   |    0.28297   0.89854   0.00000    |
 |   155    0.11111   0.27778   0.00000   |    0.28297   0.98022   0.00000    |
 |   156    0.11111   0.30556   0.00000   |    0.28297   1.06191   0.00000    |
 |   157    0.11111   0.33333   0.00000   |    0.28297   1.14359   0.00000    |
 |   158    0.11111   0.36111   0.00000   |    0.28297   1.22528   0.00000    |
 |   159    0.11111   0.38889   0.00000   |    0.28297   1.30696   0.00000    |
 |   160    0.11111   0.41667   0.00000   |    0.28297   1.38865   0.00000    |
 |   161    0.11111   0.44444   0.00000   |    0.28297   1.47033   0.00000    |
 |   162    0.11111   0.47222   0.00000   |    0.28297   1.55202   0.00000    |
 |   163    0.11111   0.50000   0.00000   |    0.28297   1.63370   0.00000    |
 |   164    0.11111   0.52778   0.00000   |    0.28297   1.71539   0.00000    |
 |   165    0.11111   0.55556   0.00000   |    0.28297   1.79707   0.00000    |
 |   166    0.11111   0.58333   0.00000   |    0.28297   1.87876   0.00000    |
 |   167    0.11111   0.61111   0.00000   |    0.28297   1.96044   0.00000    |
 |   168    0.11111   0.63889   0.00000   |    0.28297   2.04213   0.00000    |
 |   169    0.11111   0.66667   0.00000   |    0.28297   2.12381   0.00000    |
 |   170    0.11111   0.69444   0.00000   |    0.28297   2.20550   0.00000    |
 |   171    0.11111   0.72222   0.00000   |    0.28297   2.28718   0.00000    |
 |   172    0.11111   0.75000   0.00000   |    0.28297   2.36887   0.00000    |
 |   173    0.11111   0.77778   0.00000   |    0.28297   2.45055   0.00000    |
 |   174    0.11111   0.80556   0.00000   |    0.28297   2.53224   0.00000    |
 |   175    0.11111   0.83333   0.00000   |    0.28297   2.61392   0.00000    |
 |   176    0.11111   0.86111   0.00000   |    0.28297   2.69561   0.00000    |
 |   177    0.11111   0.88889   0.00000   |    0.28297   2.77729   0.00000    |
 |   178    0.11111   0.91667   0.00000   |    0.28297   2.85898   0.00000    |
 |   179    0.11111   0.94444   0.00000   |    0.28297   2.94066   0.00000    |
 |   180    0.11111   0.97222   0.00000   |    0.28297   3.02235   0.00000    |
 |   181    0.13889   0.00000   0.00000   |    0.35371   0.20421   0.00000    |
 |   182    0.13889   0.02778   0.00000   |    0.35371   0.28590   0.00000    |
 |   183    0.13889   0.05556   0.00000   |    0.35371   0.36758   0.00000    |
 |   184    0.13889   0.08333   0.00000   |    0.35371   0.44927   0.00000    |
 |   185    0.13889   0.11111   0.00000   |    0.35371   0.53095   0.00000    |
 |   186    0.13889   0.13889   0.00000   |    0.35371   0.61264   0.00000    |
 |   187    0.13889   0.16667   0.00000   |    0.35371   0.69432   0.00000    |
 |   188    0.13889   0.19444   0.00000   |    0.35371   0.77601   0.00000    |
 |   189    0.13889   0.22222   0.00000   |    0.35371   0.85769   0.00000    |
 |   190    0.13889   0.25000   0.00000   |    0.35371   0.93938   0.00000    |
 |   191    0.13889   0.27778   0.00000   |    0.35371   1.02106   0.00000    |
 |   192    0.13889   0.30556   0.00000   |    0.35371   1.10275   0.00000    |
 |   193    0.13889   0.33333   0.00000   |    0.35371   1.18443   0.00000    |
 |   194    0.13889   0.36111   0.00000   |    0.35371   1.26612   0.00000    |
 |   195    0.13889   0.38889   0.00000   |    0.35371   1.34780   0.00000    |
 |   196    0.13889   0.41667   0.00000   |    0.35371   1.42949   0.00000    |
 |   197    0.13889   0.44444   0.00000   |    0.35371   1.51117   0.00000    |
 |   198    0.13889   0.47222   0.00000   |    0.35371   1.59286   0.00000    |
 |   199    0.13889   0.50000   0.00000   |    0.35371   1.67454   0.00000    |
 |   200    0.13889   0.52778   0.00000   |    0.35371   1.75623   0.00000    |
 |   201    0.13889   0.55556   0.00000   |    0.35371   1.83791   0.00000    |
 |   202    0.13889   0.58333   0.00000   |    0.35371   1.91960   0.00000    |
 |   203    0.13889   0.61111   0.00000   |    0.35371   2.00129   0.00000    |
 |   204    0.13889   0.63889   0.00000   |    0.35371   2.08297   0.00000    |
 |   205    0.13889   0.66667   0.00000   |    0.35371   2.16466   0.00000    |
 |   206    0.13889   0.69444   0.00000   |    0.35371   2.24634   0.00000    |
 |   207    0.13889   0.72222   0.00000   |    0.35371   2.32803   0.00000    |
 |   208    0.13889   0.75000   0.00000   |    0.35371   2.40971   0.00000    |
 |   209    0.13889   0.77778   0.00000   |    0.35371   2.49140   0.00000    |
 |   210    0.13889   0.80556   0.00000   |    0.35371   2.57308   0.00000    |
 |   211    0.13889   0.83333   0.00000   |    0.35371   2.65477   0.00000    |
 |   212    0.13889   0.86111   0.00000   |    0.35371   2.73645   0.00000    |
 |   213    0.13889   0.88889   0.00000   |    0.35371   2.81814   0.00000    |
 |   214    0.13889   0.91667   0.00000   |    0.35371   2.89982   0.00000    |
 |   215    0.13889   0.94444   0.00000   |    0.35371   2.98151   0.00000    |
 |   216    0.13889   0.97222   0.00000   |    0.35371   3.06319   0.00000    |
 |   217    0.16667   0.00000   0.00000   |    0.42445   0.24506   0.00000    |
 |   218    0.16667   0.02778   0.00000   |    0.42445   0.32674   0.00000    |
 |   219    0.16667   0.05556   0.00000   |    0.42445   0.40843   0.00000    |
 |   220    0.16667   0.08333   0.00000   |    0.42445   0.49011   0.00000    |
 |   221    0.16667   0.11111   0.00000   |    0.42445   0.57180   0.00000    |
 |   222    0.16667   0.13889   0.00000   |    0.42445   0.65348   0.00000    |
 |   223    0.16667   0.16667   0.00000   |    0.42445   0.73517   0.00000    |
 |   224    0.16667   0.19444   0.00000   |    0.42445   0.81685   0.00000    |
 |   225    0.16667   0.22222   0.00000   |    0.42445   0.89854   0.00000    |
 |   226    0.16667   0.25000   0.00000   |    0.42445   0.98022   0.00000    |
 |   227    0.16667   0.27778   0.00000   |    0.42445   1.06191   0.00000    |
 |   228    0.16667   0.30556   0.00000   |    0.42445   1.14359   0.00000    |
 |   229    0.16667   0.33333   0.00000   |    0.42445   1.22528   0.00000    |
 |   230    0.16667   0.36111   0.00000   |    0.42445   1.30696   0.00000    |
 |   231    0.16667   0.38889   0.00000   |    0.42445   1.38865   0.00000    |
 |   232    0.16667   0.41667   0.00000   |    0.42445   1.47033   0.00000    |
 |   233    0.16667   0.44444   0.00000   |    0.42445   1.55202   0.00000    |
 |   234    0.16667   0.47222   0.00000   |    0.42445   1.63370   0.00000    |
 |   235    0.16667   0.50000   0.00000   |    0.42445   1.71539   0.00000    |
 |   236    0.16667   0.52778   0.00000   |    0.42445   1.79707   0.00000    |
 |   237    0.16667   0.55556   0.00000   |    0.42445   1.87876   0.00000    |
 |   238    0.16667   0.58333   0.00000   |    0.42445   1.96044   0.00000    |
 |   239    0.16667   0.61111   0.00000   |    0.42445   2.04213   0.00000    |
 |   240    0.16667   0.63889   0.00000   |    0.42445   2.12381   0.00000    |
 |   241    0.16667   0.66667   0.00000   |    0.42445   2.20550   0.00000    |
 |   242    0.16667   0.69444   0.00000   |    0.42445   2.28718   0.00000    |
 |   243    0.16667   0.72222   0.00000   |    0.42445   2.36887   0.00000    |
 |   244    0.16667   0.75000   0.00000   |    0.42445   2.45055   0.00000    |
 |   245    0.16667   0.77778   0.00000   |    0.42445   2.53224   0.00000    |
 |   246    0.16667   0.80556   0.00000   |    0.42445   2.61392   0.00000    |
 |   247    0.16667   0.83333   0.00000   |    0.42445   2.69561   0.00000    |
 |   248    0.16667   0.86111   0.00000   |    0.42445   2.77729   0.00000    |
 |   249    0.16667   0.88889   0.00000   |    0.42445   2.85898   0.00000    |
 |   250    0.16667   0.91667   0.00000   |    0.42445   2.94066   0.00000    |
 |   251    0.16667   0.94444   0.00000   |    0.42445   3.02235   0.00000    |
 |   252    0.16667   0.97222   0.00000   |    0.42445   3.10403   0.00000    |
 |   253    0.19444   0.00000   0.00000   |    0.49519   0.28590   0.00000    |
 |   254    0.19444   0.02778   0.00000   |    0.49519   0.36758   0.00000    |
 |   255    0.19444   0.05556   0.00000   |    0.49519   0.44927   0.00000    |
 |   256    0.19444   0.08333   0.00000   |    0.49519   0.53095   0.00000    |
 |   257    0.19444   0.11111   0.00000   |    0.49519   0.61264   0.00000    |
 |   258    0.19444   0.13889   0.00000   |    0.49519   0.69432   0.00000    |
 |   259    0.19444   0.16667   0.00000   |    0.49519   0.77601   0.00000    |
 |   260    0.19444   0.19444   0.00000   |    0.49519   0.85769   0.00000    |
 |   261    0.19444   0.22222   0.00000   |    0.49519   0.93938   0.00000    |
 |   262    0.19444   0.25000   0.00000   |    0.49519   1.02106   0.00000    |
 |   263    0.19444   0.27778   0.00000   |    0.49519   1.10275   0.00000    |
 |   264    0.19444   0.30556   0.00000   |    0.49519   1.18443   0.00000    |
 |   265    0.19444   0.33333   0.00000   |    0.49519   1.26612   0.00000    |
 |   266    0.19444   0.36111   0.00000   |    0.49519   1.34780   0.00000    |
 |   267    0.19444   0.38889   0.00000   |    0.49519   1.42949   0.00000    |
 |   268    0.19444   0.41667   0.00000   |    0.49519   1.51117   0.00000    |
 |   269    0.19444   0.44444   0.00000   |    0.49519   1.59286   0.00000    |
 |   270    0.19444   0.47222   0.00000   |    0.49519   1.67454   0.00000    |
 |   271    0.19444   0.50000   0.00000   |    0.49519   1.75623   0.00000    |
 |   272    0.19444   0.52778   0.00000   |    0.49519   1.83791   0.00000    |
 |   273    0.19444   0.55556   0.00000   |    0.49519   1.91960   0.00000    |
 |   274    0.19444   0.58333   0.00000   |    0.49519   2.00129   0.00000    |
 |   275    0.19444   0.61111   0.00000   |    0.49519   2.08297   0.00000    |
 |   276    0.19444   0.63889   0.00000   |    0.49519   2.16466   0.00000    |
 |   277    0.19444   0.66667   0.00000   |    0.49519   2.24634   0.00000    |
 |   278    0.19444   0.69444   0.00000   |    0.49519   2.32803   0.00000    |
 |   279    0.19444   0.72222   0.00000   |    0.49519   2.40971   0.00000    |
 |   280    0.19444   0.75000   0.00000   |    0.49519   2.49140   0.00000    |
 |   281    0.19444   0.77778   0.00000   |    0.49519   2.57308   0.00000    |
 |   282    0.19444   0.80556   0.00000   |    0.49519   2.65477   0.00000    |
 |   283    0.19444   0.83333   0.00000   |    0.49519   2.73645   0.00000    |
 |   284    0.19444   0.86111   0.00000   |    0.49519   2.81814   0.00000    |
 |   285    0.19444   0.88889   0.00000   |    0.49519   2.89982   0.00000    |
 |   286    0.19444   0.91667   0.00000   |    0.49519   2.98151   0.00000    |
 |   287    0.19444   0.94444   0.00000   |    0.49519   3.06319   0.00000    |
 |   288    0.19444   0.97222   0.00000   |    0.49519   3.14488   0.00000    |
 |   289    0.22222   0.00000   0.00000   |    0.56593   0.32674   0.00000    |
 |   290    0.22222   0.02778   0.00000   |    0.56593   0.40843   0.00000    |
 |   291    0.22222   0.05556   0.00000   |    0.56593   0.49011   0.00000    |
 |   292    0.22222   0.08333   0.00000   |    0.56593   0.57180   0.00000    |
 |   293    0.22222   0.11111   0.00000   |    0.56593   0.65348   0.00000    |
 |   294    0.22222   0.13889   0.00000   |    0.56593   0.73517   0.00000    |
 |   295    0.22222   0.16667   0.00000   |    0.56593   0.81685   0.00000    |
 |   296    0.22222   0.19444   0.00000   |    0.56593   0.89854   0.00000    |
 |   297    0.22222   0.22222   0.00000   |    0.56593   0.98022   0.00000    |
 |   298    0.22222   0.25000   0.00000   |    0.56593   1.06191   0.00000    |
 |   299    0.22222   0.27778   0.00000   |    0.56593   1.14359   0.00000    |
 |   300    0.22222   0.30556   0.00000   |    0.56593   1.22528   0.00000    |
 |   301    0.22222   0.33333   0.00000   |    0.56593   1.30696   0.00000    |
 |   302    0.22222   0.36111   0.00000   |    0.56593   1.38865   0.00000    |
 |   303    0.22222   0.38889   0.00000   |    0.56593   1.47033   0.00000    |
 |   304    0.22222   0.41667   0.00000   |    0.56593   1.55202   0.00000    |
 |   305    0.22222   0.44444   0.00000   |    0.56593   1.63370   0.00000    |
 |   306    0.22222   0.47222   0.00000   |    0.56593   1.71539   0.00000    |
 |   307    0.22222   0.50000   0.00000   |    0.56593   1.79707   0.00000    |
 |   308    0.22222   0.52778   0.00000   |    0.56593   1.87876   0.00000    |
 |   309    0.22222   0.55556   0.00000   |    0.56593   1.96044   0.00000    |
 |   310    0.22222   0.58333   0.00000   |    0.56593   2.04213   0.00000    |
 |   311    0.22222   0.61111   0.00000   |    0.56593   2.12381   0.00000    |
 |   312    0.22222   0.63889   0.00000   |    0.56593   2.20550   0.00000    |
 |   313    0.22222   0.66667   0.00000   |    0.56593   2.28718   0.00000    |
 |   314    0.22222   0.69444   0.00000   |    0.56593   2.36887   0.00000    |
 |   315    0.22222   0.72222   0.00000   |    0.56593   2.45055   0.00000    |
 |   316    0.22222   0.75000   0.00000   |    0.56593   2.53224   0.00000    |
 |   317    0.22222   0.77778   0.00000   |    0.56593   2.61392   0.00000    |
 |   318    0.22222   0.80556   0.00000   |    0.56593   2.69561   0.00000    |
 |   319    0.22222   0.83333   0.00000   |    0.56593   2.77729   0.00000    |
 |   320    0.22222   0.86111   0.00000   |    0.56593   2.85898   0.00000    |
 |   321    0.22222   0.88889   0.00000   |    0.56593   2.94066   0.00000    |
 |   322    0.22222   0.91667   0.00000   |    0.56593   3.02235   0.00000    |
 |   323    0.22222   0.94444   0.00000   |    0.56593   3.10403   0.00000    |
 |   324    0.22222   0.97222   0.00000   |    0.56593   3.18572   0.00000    |
 |   325    0.25000  -0.00000   0.00000   |    0.63667   0.36758   0.00000    |
 |   326    0.25000   0.02778   0.00000   |    0.63667   0.44927   0.00000    |
 |   327    0.25000   0.05556   0.00000   |    0.63667   0.53095   0.00000    |
 |   328    0.25000   0.08333   0.00000   |    0.63667   0.61264   0.00000    |
 |   329    0.25000   0.11111   0.00000   |    0.63667   0.69432   0.00000    |
 |   330    0.25000   0.13889   0.00000   |    0.63667   0.77601   0.00000    |
 |   331    0.25000   0.16667   0.00000   |    0.63667   0.85769   0.00000    |
 |   332    0.25000   0.19444   0.00000   |    0.63667   0.93938   0.00000    |
 |   333    0.25000   0.22222   0.00000   |    0.63667   1.02106   0.00000    |
 |   334    0.25000   0.25000   0.00000   |    0.63667   1.10275   0.00000    |
 |   335    0.25000   0.27778   0.00000   |    0.63667   1.18443   0.00000    |
 |   336    0.25000   0.30556   0.00000   |    0.63667   1.26612   0.00000    |
 |   337    0.25000   0.33333   0.00000   |    0.63667   1.34780   0.00000    |
 |   338    0.25000   0.36111   0.00000   |    0.63667   1.42949   0.00000    |
 |   339    0.25000   0.38889   0.00000   |    0.63667   1.51117   0.00000    |
 |   340    0.25000   0.41667   0.00000   |    0.63667   1.59286   0.00000    |
 |   341    0.25000   0.44444   0.00000   |    0.63667   1.67454   0.00000    |
 |   342    0.25000   0.47222   0.00000   |    0.63667   1.75623   0.00000    |
 |   343    0.25000   0.50000   0.00000   |    0.63667   1.83791   0.00000    |
 |   344    0.25000   0.52778   0.00000   |    0.63667   1.91960   0.00000    |
 |   345    0.25000   0.55556   0.00000   |    0.63667   2.00129   0.00000    |
 |   346    0.25000   0.58333   0.00000   |    0.63667   2.08297   0.00000    |
 |   347    0.25000   0.61111   0.00000   |    0.63667   2.16466   0.00000    |
 |   348    0.25000   0.63889   0.00000   |    0.63667   2.24634   0.00000    |
 |   349    0.25000   0.66667   0.00000   |    0.63667   2.32803   0.00000    |
 |   350    0.25000   0.69444   0.00000   |    0.63667   2.40971   0.00000    |
 |   351    0.25000   0.72222   0.00000   |    0.63667   2.49140   0.00000    |
 |   352    0.25000   0.75000   0.00000   |    0.63667   2.57308   0.00000    |
 |   353    0.25000   0.77778   0.00000   |    0.63667   2.65477   0.00000    |
 |   354    0.25000   0.80556   0.00000   |    0.63667   2.73645   0.00000    |
 |   355    0.25000   0.83333   0.00000   |    0.63667   2.81814   0.00000    |
 |   356    0.25000   0.86111   0.00000   |    0.63667   2.89982   0.00000    |
 |   357    0.25000   0.88889   0.00000   |    0.63667   2.98151   0.00000    |
 |   358    0.25000   0.91667   0.00000   |    0.63667   3.06319   0.00000    |
 |   359    0.25000   0.94444   0.00000   |    0.63667   3.14488   0.00000    |
 |   360    0.25000   0.97222   0.00000   |    0.63667   3.22656   0.00000    |
 |   361    0.27778   0.00000   0.00000   |    0.70741   0.40843   0.00000    |
 |   362    0.27778   0.02778   0.00000   |    0.70741   0.49011   0.00000    |
 |   363    0.27778   0.05556   0.00000   |    0.70741   0.57180   0.00000    |
 |   364    0.27778   0.08333   0.00000   |    0.70741   0.65348   0.00000    |
 |   365    0.27778   0.11111   0.00000   |    0.70741   0.73517   0.00000    |
 |   366    0.27778   0.13889   0.00000   |    0.70741   0.81685   0.00000    |
 |   367    0.27778   0.16667   0.00000   |    0.70741   0.89854   0.00000    |
 |   368    0.27778   0.19444   0.00000   |    0.70741   0.98022   0.00000    |
 |   369    0.27778   0.22222   0.00000   |    0.70741   1.06191   0.00000    |
 |   370    0.27778   0.25000   0.00000   |    0.70741   1.14359   0.00000    |
 |   371    0.27778   0.27778   0.00000   |    0.70741   1.22528   0.00000    |
 |   372    0.27778   0.30556   0.00000   |    0.70741   1.30696   0.00000    |
 |   373    0.27778   0.33333   0.00000   |    0.70741   1.38865   0.00000    |
 |   374    0.27778   0.36111   0.00000   |    0.70741   1.47033   0.00000    |
 |   375    0.27778   0.38889   0.00000   |    0.70741   1.55202   0.00000    |
 |   376    0.27778   0.41667   0.00000   |    0.70741   1.63370   0.00000    |
 |   377    0.27778   0.44444   0.00000   |    0.70741   1.71539   0.00000    |
 |   378    0.27778   0.47222   0.00000   |    0.70741   1.79707   0.00000    |
 |   379    0.27778   0.50000   0.00000   |    0.70741   1.87876   0.00000    |
 |   380    0.27778   0.52778   0.00000   |    0.70741   1.96044   0.00000    |
 |   381    0.27778   0.55556   0.00000   |    0.70741   2.04213   0.00000    |
 |   382    0.27778   0.58333   0.00000   |    0.70741   2.12381   0.00000    |
 |   383    0.27778   0.61111   0.00000   |    0.70741   2.20550   0.00000    |
 |   384    0.27778   0.63889   0.00000   |    0.70741   2.28718   0.00000    |
 |   385    0.27778   0.66667   0.00000   |    0.70741   2.36887   0.00000    |
 |   386    0.27778   0.69444   0.00000   |    0.70741   2.45055   0.00000    |
 |   387    0.27778   0.72222   0.00000   |    0.70741   2.53224   0.00000    |
 |   388    0.27778   0.75000   0.00000   |    0.70741   2.61392   0.00000    |
 |   389    0.27778   0.77778   0.00000   |    0.70741   2.69561   0.00000    |
 |   390    0.27778   0.80556   0.00000   |    0.70741   2.77729   0.00000    |
 |   391    0.27778   0.83333   0.00000   |    0.70741   2.85898   0.00000    |
 |   392    0.27778   0.86111   0.00000   |    0.70741   2.94066   0.00000    |
 |   393    0.27778   0.88889   0.00000   |    0.70741   3.02235   0.00000    |
 |   394    0.27778   0.91667   0.00000   |    0.70741   3.10403   0.00000    |
 |   395    0.27778   0.94444   0.00000   |    0.70741   3.18572   0.00000    |
 |   396    0.27778   0.97222   0.00000   |    0.70741   3.26740   0.00000    |
 |   397    0.30556   0.00000   0.00000   |    0.77816   0.44927   0.00000    |
 |   398    0.30556   0.02778   0.00000   |    0.77816   0.53095   0.00000    |
 |   399    0.30556   0.05556   0.00000   |    0.77816   0.61264   0.00000    |
 |   400    0.30556   0.08333   0.00000   |    0.77816   0.69432   0.00000    |
 |   401    0.30556   0.11111   0.00000   |    0.77816   0.77601   0.00000    |
 |   402    0.30556   0.13889   0.00000   |    0.77816   0.85769   0.00000    |
 |   403    0.30556   0.16667   0.00000   |    0.77816   0.93938   0.00000    |
 |   404    0.30556   0.19444   0.00000   |    0.77816   1.02106   0.00000    |
 |   405    0.30556   0.22222   0.00000   |    0.77816   1.10275   0.00000    |
 |   406    0.30556   0.25000   0.00000   |    0.77816   1.18443   0.00000    |
 |   407    0.30556   0.27778   0.00000   |    0.77816   1.26612   0.00000    |
 |   408    0.30556   0.30556   0.00000   |    0.77816   1.34780   0.00000    |
 |   409    0.30556   0.33333   0.00000   |    0.77816   1.42949   0.00000    |
 |   410    0.30556   0.36111   0.00000   |    0.77816   1.51117   0.00000    |
 |   411    0.30556   0.38889   0.00000   |    0.77816   1.59286   0.00000    |
 |   412    0.30556   0.41667   0.00000   |    0.77816   1.67454   0.00000    |
 |   413    0.30556   0.44444   0.00000   |    0.77816   1.75623   0.00000    |
 |   414    0.30556   0.47222   0.00000   |    0.77816   1.83791   0.00000    |
 |   415    0.30556   0.50000   0.00000   |    0.77816   1.91960   0.00000    |
 |   416    0.30556   0.52778   0.00000   |    0.77816   2.00129   0.00000    |
 |   417    0.30556   0.55556   0.00000   |    0.77816   2.08297   0.00000    |
 |   418    0.30556   0.58333   0.00000   |    0.77816   2.16466   0.00000    |
 |   419    0.30556   0.61111   0.00000   |    0.77816   2.24634   0.00000    |
 |   420    0.30556   0.63889   0.00000   |    0.77816   2.32803   0.00000    |
 |   421    0.30556   0.66667   0.00000   |    0.77816   2.40971   0.00000    |
 |   422    0.30556   0.69444   0.00000   |    0.77816   2.49140   0.00000    |
 |   423    0.30556   0.72222   0.00000   |    0.77816   2.57308   0.00000    |
 |   424    0.30556   0.75000   0.00000   |    0.77816   2.65477   0.00000    |
 |   425    0.30556   0.77778   0.00000   |    0.77816   2.73645   0.00000    |
 |   426    0.30556   0.80556   0.00000   |    0.77816   2.81814   0.00000    |
 |   427    0.30556   0.83333   0.00000   |    0.77816   2.89982   0.00000    |
 |   428    0.30556   0.86111   0.00000   |    0.77816   2.98151   0.00000    |
 |   429    0.30556   0.88889   0.00000   |    0.77816   3.06319   0.00000    |
 |   430    0.30556   0.91667   0.00000   |    0.77816   3.14488   0.00000    |
 |   431    0.30556   0.94444   0.00000   |    0.77816   3.22656   0.00000    |
 |   432    0.30556   0.97222   0.00000   |    0.77816   3.30825   0.00000    |
 |   433    0.33333  -0.00000   0.00000   |    0.84890   0.49011   0.00000    |
 |   434    0.33333   0.02778   0.00000   |    0.84890   0.57180   0.00000    |
 |   435    0.33333   0.05556   0.00000   |    0.84890   0.65348   0.00000    |
 |   436    0.33333   0.08333   0.00000   |    0.84890   0.73517   0.00000    |
 |   437    0.33333   0.11111   0.00000   |    0.84890   0.81685   0.00000    |
 |   438    0.33333   0.13889   0.00000   |    0.84890   0.89854   0.00000    |
 |   439    0.33333   0.16667   0.00000   |    0.84890   0.98022   0.00000    |
 |   440    0.33333   0.19444   0.00000   |    0.84890   1.06191   0.00000    |
 |   441    0.33333   0.22222   0.00000   |    0.84890   1.14359   0.00000    |
 |   442    0.33333   0.25000   0.00000   |    0.84890   1.22528   0.00000    |
 |   443    0.33333   0.27778   0.00000   |    0.84890   1.30696   0.00000    |
 |   444    0.33333   0.30556   0.00000   |    0.84890   1.38865   0.00000    |
 |   445    0.33333   0.33333   0.00000   |    0.84890   1.47033   0.00000    |
 |   446    0.33333   0.36111   0.00000   |    0.84890   1.55202   0.00000    |
 |   447    0.33333   0.38889   0.00000   |    0.84890   1.63370   0.00000    |
 |   448    0.33333   0.41667   0.00000   |    0.84890   1.71539   0.00000    |
 |   449    0.33333   0.44444   0.00000   |    0.84890   1.79707   0.00000    |
 |   450    0.33333   0.47222   0.00000   |    0.84890   1.87876   0.00000    |
 |   451    0.33333   0.50000   0.00000   |    0.84890   1.96044   0.00000    |
 |   452    0.33333   0.52778   0.00000   |    0.84890   2.04213   0.00000    |
 |   453    0.33333   0.55556   0.00000   |    0.84890   2.12381   0.00000    |
 |   454    0.33333   0.58333   0.00000   |    0.84890   2.20550   0.00000    |
 |   455    0.33333   0.61111   0.00000   |    0.84890   2.28718   0.00000    |
 |   456    0.33333   0.63889   0.00000   |    0.84890   2.36887   0.00000    |
 |   457    0.33333   0.66667   0.00000   |    0.84890   2.45055   0.00000    |
 |   458    0.33333   0.69444   0.00000   |    0.84890   2.53224   0.00000    |
 |   459    0.33333   0.72222   0.00000   |    0.84890   2.61392   0.00000    |
 |   460    0.33333   0.75000   0.00000   |    0.84890   2.69561   0.00000    |
 |   461    0.33333   0.77778   0.00000   |    0.84890   2.77729   0.00000    |
 |   462    0.33333   0.80556   0.00000   |    0.84890   2.85898   0.00000    |
 |   463    0.33333   0.83333   0.00000   |    0.84890   2.94066   0.00000    |
 |   464    0.33333   0.86111   0.00000   |    0.84890   3.02235   0.00000    |
 |   465    0.33333   0.88889   0.00000   |    0.84890   3.10403   0.00000    |
 |   466    0.33333   0.91667   0.00000   |    0.84890   3.18572   0.00000    |
 |   467    0.33333   0.94444   0.00000   |    0.84890   3.26740   0.00000    |
 |   468    0.33333   0.97222   0.00000   |    0.84890   3.34909   0.00000    |
 |   469    0.36111   0.00000   0.00000   |    0.91964   0.53095   0.00000    |
 |   470    0.36111   0.02778   0.00000   |    0.91964   0.61264   0.00000    |
 |   471    0.36111   0.05556   0.00000   |    0.91964   0.69432   0.00000    |
 |   472    0.36111   0.08333   0.00000   |    0.91964   0.77601   0.00000    |
 |   473    0.36111   0.11111   0.00000   |    0.91964   0.85769   0.00000    |
 |   474    0.36111   0.13889   0.00000   |    0.91964   0.93938   0.00000    |
 |   475    0.36111   0.16667   0.00000   |    0.91964   1.02106   0.00000    |
 |   476    0.36111   0.19444   0.00000   |    0.91964   1.10275   0.00000    |
 |   477    0.36111   0.22222   0.00000   |    0.91964   1.18443   0.00000    |
 |   478    0.36111   0.25000   0.00000   |    0.91964   1.26612   0.00000    |
 |   479    0.36111   0.27778   0.00000   |    0.91964   1.34780   0.00000    |
 |   480    0.36111   0.30556   0.00000   |    0.91964   1.42949   0.00000    |
 |   481    0.36111   0.33333   0.00000   |    0.91964   1.51117   0.00000    |
 |   482    0.36111   0.36111   0.00000   |    0.91964   1.59286   0.00000    |
 |   483    0.36111   0.38889   0.00000   |    0.91964   1.67454   0.00000    |
 |   484    0.36111   0.41667   0.00000   |    0.91964   1.75623   0.00000    |
 |   485    0.36111   0.44444   0.00000   |    0.91964   1.83791   0.00000    |
 |   486    0.36111   0.47222   0.00000   |    0.91964   1.91960   0.00000    |
 |   487    0.36111   0.50000   0.00000   |    0.91964   2.00129   0.00000    |
 |   488    0.36111   0.52778   0.00000   |    0.91964   2.08297   0.00000    |
 |   489    0.36111   0.55556   0.00000   |    0.91964   2.16466   0.00000    |
 |   490    0.36111   0.58333   0.00000   |    0.91964   2.24634   0.00000    |
 |   491    0.36111   0.61111   0.00000   |    0.91964   2.32803   0.00000    |
 |   492    0.36111   0.63889   0.00000   |    0.91964   2.40971   0.00000    |
 |   493    0.36111   0.66667   0.00000   |    0.91964   2.49140   0.00000    |
 |   494    0.36111   0.69444   0.00000   |    0.91964   2.57308   0.00000    |
 |   495    0.36111   0.72222   0.00000   |    0.91964   2.65477   0.00000    |
 |   496    0.36111   0.75000   0.00000   |    0.91964   2.73645   0.00000    |
 |   497    0.36111   0.77778   0.00000   |    0.91964   2.81814   0.00000    |
 |   498    0.36111   0.80556   0.00000   |    0.91964   2.89982   0.00000    |
 |   499    0.36111   0.83333   0.00000   |    0.91964   2.98151   0.00000    |
 |   500    0.36111   0.86111   0.00000   |    0.91964   3.06319   0.00000    |
 |   501    0.36111   0.88889   0.00000   |    0.91964   3.14488   0.00000    |
 |   502    0.36111   0.91667   0.00000   |    0.91964   3.22656   0.00000    |
 |   503    0.36111   0.94444   0.00000   |    0.91964   3.30825   0.00000    |
 |   504    0.36111   0.97222   0.00000   |    0.91964   3.38993   0.00000    |
 |   505    0.38889  -0.00000   0.00000   |    0.99038   0.57180   0.00000    |
 |   506    0.38889   0.02778   0.00000   |    0.99038   0.65348   0.00000    |
 |   507    0.38889   0.05556   0.00000   |    0.99038   0.73517   0.00000    |
 |   508    0.38889   0.08333   0.00000   |    0.99038   0.81685   0.00000    |
 |   509    0.38889   0.11111   0.00000   |    0.99038   0.89854   0.00000    |
 |   510    0.38889   0.13889   0.00000   |    0.99038   0.98022   0.00000    |
 |   511    0.38889   0.16667   0.00000   |    0.99038   1.06191   0.00000    |
 |   512    0.38889   0.19444   0.00000   |    0.99038   1.14359   0.00000    |
 |   513    0.38889   0.22222   0.00000   |    0.99038   1.22528   0.00000    |
 |   514    0.38889   0.25000   0.00000   |    0.99038   1.30696   0.00000    |
 |   515    0.38889   0.27778   0.00000   |    0.99038   1.38865   0.00000    |
 |   516    0.38889   0.30556   0.00000   |    0.99038   1.47033   0.00000    |
 |   517    0.38889   0.33333   0.00000   |    0.99038   1.55202   0.00000    |
 |   518    0.38889   0.36111   0.00000   |    0.99038   1.63370   0.00000    |
 |   519    0.38889   0.38889   0.00000   |    0.99038   1.71539   0.00000    |
 |   520    0.38889   0.41667   0.00000   |    0.99038   1.79707   0.00000    |
 |   521    0.38889   0.44444   0.00000   |    0.99038   1.87876   0.00000    |
 |   522    0.38889   0.47222   0.00000   |    0.99038   1.96044   0.00000    |
 |   523    0.38889   0.50000   0.00000   |    0.99038   2.04213   0.00000    |
 |   524    0.38889   0.52778   0.00000   |    0.99038   2.12381   0.00000    |
 |   525    0.38889   0.55556   0.00000   |    0.99038   2.20550   0.00000    |
 |   526    0.38889   0.58333   0.00000   |    0.99038   2.28718   0.00000    |
 |   527    0.38889   0.61111   0.00000   |    0.99038   2.36887   0.00000    |
 |   528    0.38889   0.63889   0.00000   |    0.99038   2.45055   0.00000    |
 |   529    0.38889   0.66667   0.00000   |    0.99038   2.53224   0.00000    |
 |   530    0.38889   0.69444   0.00000   |    0.99038   2.61392   0.00000    |
 |   531    0.38889   0.72222   0.00000   |    0.99038   2.69561   0.00000    |
 |   532    0.38889   0.75000   0.00000   |    0.99038   2.77729   0.00000    |
 |   533    0.38889   0.77778   0.00000   |    0.99038   2.85898   0.00000    |
 |   534    0.38889   0.80556   0.00000   |    0.99038   2.94066   0.00000    |
 |   535    0.38889   0.83333   0.00000   |    0.99038   3.02235   0.00000    |
 |   536    0.38889   0.86111   0.00000   |    0.99038   3.10403   0.00000    |
 |   537    0.38889   0.88889   0.00000   |    0.99038   3.18572   0.00000    |
 |   538    0.38889   0.91667   0.00000   |    0.99038   3.26740   0.00000    |
 |   539    0.38889   0.94444   0.00000   |    0.99038   3.34909   0.00000    |
 |   540    0.38889   0.97222   0.00000   |    0.99038   3.43077   0.00000    |
 |   541    0.41667   0.00000   0.00000   |    1.06112   0.61264   0.00000    |
 |   542    0.41667   0.02778   0.00000   |    1.06112   0.69432   0.00000    |
 |   543    0.41667   0.05556   0.00000   |    1.06112   0.77601   0.00000    |
 |   544    0.41667   0.08333   0.00000   |    1.06112   0.85769   0.00000    |
 |   545    0.41667   0.11111   0.00000   |    1.06112   0.93938   0.00000    |
 |   546    0.41667   0.13889   0.00000   |    1.06112   1.02106   0.00000    |
 |   547    0.41667   0.16667   0.00000   |    1.06112   1.10275   0.00000    |
 |   548    0.41667   0.19444   0.00000   |    1.06112   1.18443   0.00000    |
 |   549    0.41667   0.22222   0.00000   |    1.06112   1.26612   0.00000    |
 |   550    0.41667   0.25000   0.00000   |    1.06112   1.34780   0.00000    |
 |   551    0.41667   0.27778   0.00000   |    1.06112   1.42949   0.00000    |
 |   552    0.41667   0.30556   0.00000   |    1.06112   1.51117   0.00000    |
 |   553    0.41667   0.33333   0.00000   |    1.06112   1.59286   0.00000    |
 |   554    0.41667   0.36111   0.00000   |    1.06112   1.67454   0.00000    |
 |   555    0.41667   0.38889   0.00000   |    1.06112   1.75623   0.00000    |
 |   556    0.41667   0.41667   0.00000   |    1.06112   1.83791   0.00000    |
 |   557    0.41667   0.44444   0.00000   |    1.06112   1.91960   0.00000    |
 |   558    0.41667   0.47222   0.00000   |    1.06112   2.00129   0.00000    |
 |   559    0.41667   0.50000   0.00000   |    1.06112   2.08297   0.00000    |
 |   560    0.41667   0.52778   0.00000   |    1.06112   2.16466   0.00000    |
 |   561    0.41667   0.55556   0.00000   |    1.06112   2.24634   0.00000    |
 |   562    0.41667   0.58333   0.00000   |    1.06112   2.32803   0.00000    |
 |   563    0.41667   0.61111   0.00000   |    1.06112   2.40971   0.00000    |
 |   564    0.41667   0.63889   0.00000   |    1.06112   2.49140   0.00000    |
 |   565    0.41667   0.66667   0.00000   |    1.06112   2.57308   0.00000    |
 |   566    0.41667   0.69444   0.00000   |    1.06112   2.65477   0.00000    |
 |   567    0.41667   0.72222   0.00000   |    1.06112   2.73645   0.00000    |
 |   568    0.41667   0.75000   0.00000   |    1.06112   2.81814   0.00000    |
 |   569    0.41667   0.77778   0.00000   |    1.06112   2.89982   0.00000    |
 |   570    0.41667   0.80556   0.00000   |    1.06112   2.98151   0.00000    |
 |   571    0.41667   0.83333   0.00000   |    1.06112   3.06319   0.00000    |
 |   572    0.41667   0.86111   0.00000   |    1.06112   3.14488   0.00000    |
 |   573    0.41667   0.88889   0.00000   |    1.06112   3.22656   0.00000    |
 |   574    0.41667   0.91667   0.00000   |    1.06112   3.30825   0.00000    |
 |   575    0.41667   0.94444   0.00000   |    1.06112   3.38993   0.00000    |
 |   576    0.41667   0.97222   0.00000   |    1.06112   3.47162   0.00000    |
 |   577    0.44444   0.00000   0.00000   |    1.13186   0.65348   0.00000    |
 |   578    0.44444   0.02778   0.00000   |    1.13186   0.73517   0.00000    |
 |   579    0.44444   0.05556   0.00000   |    1.13186   0.81685   0.00000    |
 |   580    0.44444   0.08333   0.00000   |    1.13186   0.89854   0.00000    |
 |   581    0.44444   0.11111   0.00000   |    1.13186   0.98022   0.00000    |
 |   582    0.44444   0.13889   0.00000   |    1.13186   1.06191   0.00000    |
 |   583    0.44444   0.16667   0.00000   |    1.13186   1.14359   0.00000    |
 |   584    0.44444   0.19444   0.00000   |    1.13186   1.22528   0.00000    |
 |   585    0.44444   0.22222   0.00000   |    1.13186   1.30696   0.00000    |
 |   586    0.44444   0.25000   0.00000   |    1.13186   1.38865   0.00000    |
 |   587    0.44444   0.27778   0.00000   |    1.13186   1.47033   0.00000    |
 |   588    0.44444   0.30556   0.00000   |    1.13186   1.55202   0.00000    |
 |   589    0.44444   0.33333   0.00000   |    1.13186   1.63370   0.00000    |
 |   590    0.44444   0.36111   0.00000   |    1.13186   1.71539   0.00000    |
 |   591    0.44444   0.38889   0.00000   |    1.13186   1.79707   0.00000    |
 |   592    0.44444   0.41667   0.00000   |    1.13186   1.87876   0.00000    |
 |   593    0.44444   0.44444   0.00000   |    1.13186   1.96044   0.00000    |
 |   594    0.44444   0.47222   0.00000   |    1.13186   2.04213   0.00000    |
 |   595    0.44444   0.50000   0.00000   |    1.13186   2.12381   0.00000    |
 |   596    0.44444   0.52778   0.00000   |    1.13186   2.20550   0.00000    |
 |   597    0.44444   0.55556   0.00000   |    1.13186   2.28718   0.00000    |
 |   598    0.44444   0.58333   0.00000   |    1.13186   2.36887   0.00000    |
 |   599    0.44444   0.61111   0.00000   |    1.13186   2.45055   0.00000    |
 |   600    0.44444   0.63889   0.00000   |    1.13186   2.53224   0.00000    |
 |   601    0.44444   0.66667   0.00000   |    1.13186   2.61392   0.00000    |
 |   602    0.44444   0.69444   0.00000   |    1.13186   2.69561   0.00000    |
 |   603    0.44444   0.72222   0.00000   |    1.13186   2.77729   0.00000    |
 |   604    0.44444   0.75000   0.00000   |    1.13186   2.85898   0.00000    |
 |   605    0.44444   0.77778   0.00000   |    1.13186   2.94066   0.00000    |
 |   606    0.44444   0.80556   0.00000   |    1.13186   3.02235   0.00000    |
 |   607    0.44444   0.83333   0.00000   |    1.13186   3.10403   0.00000    |
 |   608    0.44444   0.86111   0.00000   |    1.13186   3.18572   0.00000    |
 |   609    0.44444   0.88889   0.00000   |    1.13186   3.26740   0.00000    |
 |   610    0.44444   0.91667   0.00000   |    1.13186   3.34909   0.00000    |
 |   611    0.44444   0.94444   0.00000   |    1.13186   3.43077   0.00000    |
 |   612    0.44444   0.97222   0.00000   |    1.13186   3.51246   0.00000    |
 |   613    0.47222   0.00000   0.00000   |    1.20260   0.69432   0.00000    |
 |   614    0.47222   0.02778   0.00000   |    1.20260   0.77601   0.00000    |
 |   615    0.47222   0.05556   0.00000   |    1.20260   0.85769   0.00000    |
 |   616    0.47222   0.08333   0.00000   |    1.20260   0.93938   0.00000    |
 |   617    0.47222   0.11111   0.00000   |    1.20260   1.02106   0.00000    |
 |   618    0.47222   0.13889   0.00000   |    1.20260   1.10275   0.00000    |
 |   619    0.47222   0.16667   0.00000   |    1.20260   1.18443   0.00000    |
 |   620    0.47222   0.19444   0.00000   |    1.20260   1.26612   0.00000    |
 |   621    0.47222   0.22222   0.00000   |    1.20260   1.34780   0.00000    |
 |   622    0.47222   0.25000   0.00000   |    1.20260   1.42949   0.00000    |
 |   623    0.47222   0.27778   0.00000   |    1.20260   1.51117   0.00000    |
 |   624    0.47222   0.30556   0.00000   |    1.20260   1.59286   0.00000    |
 |   625    0.47222   0.33333   0.00000   |    1.20260   1.67454   0.00000    |
 |   626    0.47222   0.36111   0.00000   |    1.20260   1.75623   0.00000    |
 |   627    0.47222   0.38889   0.00000   |    1.20260   1.83791   0.00000    |
 |   628    0.47222   0.41667   0.00000   |    1.20260   1.91960   0.00000    |
 |   629    0.47222   0.44444   0.00000   |    1.20260   2.00129   0.00000    |
 |   630    0.47222   0.47222   0.00000   |    1.20260   2.08297   0.00000    |
 |   631    0.47222   0.50000   0.00000   |    1.20260   2.16466   0.00000    |
 |   632    0.47222   0.52778   0.00000   |    1.20260   2.24634   0.00000    |
 |   633    0.47222   0.55556   0.00000   |    1.20260   2.32803   0.00000    |
 |   634    0.47222   0.58333   0.00000   |    1.20260   2.40971   0.00000    |
 |   635    0.47222   0.61111   0.00000   |    1.20260   2.49140   0.00000    |
 |   636    0.47222   0.63889   0.00000   |    1.20260   2.57308   0.00000    |
 |   637    0.47222   0.66667   0.00000   |    1.20260   2.65477   0.00000    |
 |   638    0.47222   0.69444   0.00000   |    1.20260   2.73645   0.00000    |
 |   639    0.47222   0.72222   0.00000   |    1.20260   2.81814   0.00000    |
 |   640    0.47222   0.75000   0.00000   |    1.20260   2.89982   0.00000    |
 |   641    0.47222   0.77778   0.00000   |    1.20260   2.98151   0.00000    |
 |   642    0.47222   0.80556   0.00000   |    1.20260   3.06319   0.00000    |
 |   643    0.47222   0.83333   0.00000   |    1.20260   3.14488   0.00000    |
 |   644    0.47222   0.86111   0.00000   |    1.20260   3.22656   0.00000    |
 |   645    0.47222   0.88889   0.00000   |    1.20260   3.30825   0.00000    |
 |   646    0.47222   0.91667   0.00000   |    1.20260   3.38993   0.00000    |
 |   647    0.47222   0.94444   0.00000   |    1.20260   3.47162   0.00000    |
 |   648    0.47222   0.97222   0.00000   |    1.20260   3.55330   0.00000    |
 |   649    0.50000  -0.00000   0.00000   |    1.27334   0.73517   0.00000    |
 |   650    0.50000   0.02778   0.00000   |    1.27334   0.81685   0.00000    |
 |   651    0.50000   0.05556   0.00000   |    1.27334   0.89854   0.00000    |
 |   652    0.50000   0.08333   0.00000   |    1.27334   0.98022   0.00000    |
 |   653    0.50000   0.11111   0.00000   |    1.27334   1.06191   0.00000    |
 |   654    0.50000   0.13889   0.00000   |    1.27334   1.14359   0.00000    |
 |   655    0.50000   0.16667   0.00000   |    1.27334   1.22528   0.00000    |
 |   656    0.50000   0.19444   0.00000   |    1.27334   1.30696   0.00000    |
 |   657    0.50000   0.22222   0.00000   |    1.27334   1.38865   0.00000    |
 |   658    0.50000   0.25000   0.00000   |    1.27334   1.47033   0.00000    |
 |   659    0.50000   0.27778   0.00000   |    1.27334   1.55202   0.00000    |
 |   660    0.50000   0.30556   0.00000   |    1.27334   1.63370   0.00000    |
 |   661    0.50000   0.33333   0.00000   |    1.27334   1.71539   0.00000    |
 |   662    0.50000   0.36111   0.00000   |    1.27334   1.79707   0.00000    |
 |   663    0.50000   0.38889   0.00000   |    1.27334   1.87876   0.00000    |
 |   664    0.50000   0.41667   0.00000   |    1.27334   1.96044   0.00000    |
 |   665    0.50000   0.44444   0.00000   |    1.27334   2.04213   0.00000    |
 |   666    0.50000   0.47222   0.00000   |    1.27334   2.12381   0.00000    |
 |   667    0.50000   0.50000   0.00000   |    1.27334   2.20550   0.00000    |
 |   668    0.50000   0.52778   0.00000   |    1.27334   2.28718   0.00000    |
 |   669    0.50000   0.55556   0.00000   |    1.27334   2.36887   0.00000    |
 |   670    0.50000   0.58333   0.00000   |    1.27334   2.45055   0.00000    |
 |   671    0.50000   0.61111   0.00000   |    1.27334   2.53224   0.00000    |
 |   672    0.50000   0.63889   0.00000   |    1.27334   2.61392   0.00000    |
 |   673    0.50000   0.66667   0.00000   |    1.27334   2.69561   0.00000    |
 |   674    0.50000   0.69444   0.00000   |    1.27334   2.77729   0.00000    |
 |   675    0.50000   0.72222   0.00000   |    1.27334   2.85898   0.00000    |
 |   676    0.50000   0.75000   0.00000   |    1.27334   2.94066   0.00000    |
 |   677    0.50000   0.77778   0.00000   |    1.27334   3.02235   0.00000    |
 |   678    0.50000   0.80556   0.00000   |    1.27334   3.10403   0.00000    |
 |   679    0.50000   0.83333   0.00000   |    1.27334   3.18572   0.00000    |
 |   680    0.50000   0.86111   0.00000   |    1.27334   3.26740   0.00000    |
 |   681    0.50000   0.88889   0.00000   |    1.27334   3.34909   0.00000    |
 |   682    0.50000   0.91667   0.00000   |    1.27334   3.43077   0.00000    |
 |   683    0.50000   0.94444   0.00000   |    1.27334   3.51246   0.00000    |
 |   684    0.50000   0.97222   0.00000   |    1.27334   3.59414   0.00000    |
 |   685    0.52778   0.00000   0.00000   |    1.34409   0.77601   0.00000    |
 |   686    0.52778   0.02778   0.00000   |    1.34409   0.85769   0.00000    |
 |   687    0.52778   0.05556   0.00000   |    1.34409   0.93938   0.00000    |
 |   688    0.52778   0.08333   0.00000   |    1.34409   1.02106   0.00000    |
 |   689    0.52778   0.11111   0.00000   |    1.34409   1.10275   0.00000    |
 |   690    0.52778   0.13889   0.00000   |    1.34409   1.18443   0.00000    |
 |   691    0.52778   0.16667   0.00000   |    1.34409   1.26612   0.00000    |
 |   692    0.52778   0.19444   0.00000   |    1.34409   1.34780   0.00000    |
 |   693    0.52778   0.22222   0.00000   |    1.34409   1.42949   0.00000    |
 |   694    0.52778   0.25000   0.00000   |    1.34409   1.51117   0.00000    |
 |   695    0.52778   0.27778   0.00000   |    1.34409   1.59286   0.00000    |
 |   696    0.52778   0.30556   0.00000   |    1.34409   1.67454   0.00000    |
 |   697    0.52778   0.33333   0.00000   |    1.34409   1.75623   0.00000    |
 |   698    0.52778   0.36111   0.00000   |    1.34409   1.83791   0.00000    |
 |   699    0.52778   0.38889   0.00000   |    1.34409   1.91960   0.00000    |
 |   700    0.52778   0.41667   0.00000   |    1.34409   2.00129   0.00000    |
 |   701    0.52778   0.44444   0.00000   |    1.34409   2.08297   0.00000    |
 |   702    0.52778   0.47222   0.00000   |    1.34409   2.16466   0.00000    |
 |   703    0.52778   0.50000   0.00000   |    1.34409   2.24634   0.00000    |
 |   704    0.52778   0.52778   0.00000   |    1.34409   2.32803   0.00000    |
 |   705    0.52778   0.55556   0.00000   |    1.34409   2.40971   0.00000    |
 |   706    0.52778   0.58333   0.00000   |    1.34409   2.49140   0.00000    |
 |   707    0.52778   0.61111   0.00000   |    1.34409   2.57308   0.00000    |
 |   708    0.52778   0.63889   0.00000   |    1.34409   2.65477   0.00000    |
 |   709    0.52778   0.66667   0.00000   |    1.34409   2.73645   0.00000    |
 |   710    0.52778   0.69444   0.00000   |    1.34409   2.81814   0.00000    |
 |   711    0.52778   0.72222   0.00000   |    1.34409   2.89982   0.00000    |
 |   712    0.52778   0.75000   0.00000   |    1.34409   2.98151   0.00000    |
 |   713    0.52778   0.77778   0.00000   |    1.34409   3.06319   0.00000    |
 |   714    0.52778   0.80556   0.00000   |    1.34409   3.14488   0.00000    |
 |   715    0.52778   0.83333   0.00000   |    1.34409   3.22656   0.00000    |
 |   716    0.52778   0.86111   0.00000   |    1.34409   3.30825   0.00000    |
 |   717    0.52778   0.88889   0.00000   |    1.34409   3.38993   0.00000    |
 |   718    0.52778   0.91667   0.00000   |    1.34409   3.47162   0.00000    |
 |   719    0.52778   0.94444   0.00000   |    1.34409   3.55330   0.00000    |
 |   720    0.52778   0.97222   0.00000   |    1.34409   3.63499   0.00000    |
 |   721    0.55556   0.00000   0.00000   |    1.41483   0.81685   0.00000    |
 |   722    0.55556   0.02778   0.00000   |    1.41483   0.89854   0.00000    |
 |   723    0.55556   0.05556   0.00000   |    1.41483   0.98022   0.00000    |
 |   724    0.55556   0.08333   0.00000   |    1.41483   1.06191   0.00000    |
 |   725    0.55556   0.11111   0.00000   |    1.41483   1.14359   0.00000    |
 |   726    0.55556   0.13889   0.00000   |    1.41483   1.22528   0.00000    |
 |   727    0.55556   0.16667   0.00000   |    1.41483   1.30696   0.00000    |
 |   728    0.55556   0.19444   0.00000   |    1.41483   1.38865   0.00000    |
 |   729    0.55556   0.22222   0.00000   |    1.41483   1.47033   0.00000    |
 |   730    0.55556   0.25000   0.00000   |    1.41483   1.55202   0.00000    |
 |   731    0.55556   0.27778   0.00000   |    1.41483   1.63370   0.00000    |
 |   732    0.55556   0.30556   0.00000   |    1.41483   1.71539   0.00000    |
 |   733    0.55556   0.33333   0.00000   |    1.41483   1.79707   0.00000    |
 |   734    0.55556   0.36111   0.00000   |    1.41483   1.87876   0.00000    |
 |   735    0.55556   0.38889   0.00000   |    1.41483   1.96044   0.00000    |
 |   736    0.55556   0.41667   0.00000   |    1.41483   2.04213   0.00000    |
 |   737    0.55556   0.44444   0.00000   |    1.41483   2.12381   0.00000    |
 |   738    0.55556   0.47222   0.00000   |    1.41483   2.20550   0.00000    |
 |   739    0.55556   0.50000   0.00000   |    1.41483   2.28718   0.00000    |
 |   740    0.55556   0.52778   0.00000   |    1.41483   2.36887   0.00000    |
 |   741    0.55556   0.55556   0.00000   |    1.41483   2.45055   0.00000    |
 |   742    0.55556   0.58333   0.00000   |    1.41483   2.53224   0.00000    |
 |   743    0.55556   0.61111   0.00000   |    1.41483   2.61392   0.00000    |
 |   744    0.55556   0.63889   0.00000   |    1.41483   2.69561   0.00000    |
 |   745    0.55556   0.66667   0.00000   |    1.41483   2.77729   0.00000    |
 |   746    0.55556   0.69444   0.00000   |    1.41483   2.85898   0.00000    |
 |   747    0.55556   0.72222   0.00000   |    1.41483   2.94066   0.00000    |
 |   748    0.55556   0.75000   0.00000   |    1.41483   3.02235   0.00000    |
 |   749    0.55556   0.77778   0.00000   |    1.41483   3.10403   0.00000    |
 |   750    0.55556   0.80556   0.00000   |    1.41483   3.18572   0.00000    |
 |   751    0.55556   0.83333   0.00000   |    1.41483   3.26740   0.00000    |
 |   752    0.55556   0.86111   0.00000   |    1.41483   3.34909   0.00000    |
 |   753    0.55556   0.88889   0.00000   |    1.41483   3.43077   0.00000    |
 |   754    0.55556   0.91667   0.00000   |    1.41483   3.51246   0.00000    |
 |   755    0.55556   0.94444   0.00000   |    1.41483   3.59414   0.00000    |
 |   756    0.55556   0.97222   0.00000   |    1.41483   3.67583   0.00000    |
 |   757    0.58333  -0.00000   0.00000   |    1.48557   0.85769   0.00000    |
 |   758    0.58333   0.02778   0.00000   |    1.48557   0.93938   0.00000    |
 |   759    0.58333   0.05556   0.00000   |    1.48557   1.02106   0.00000    |
 |   760    0.58333   0.08333   0.00000   |    1.48557   1.10275   0.00000    |
 |   761    0.58333   0.11111   0.00000   |    1.48557   1.18443   0.00000    |
 |   762    0.58333   0.13889   0.00000   |    1.48557   1.26612   0.00000    |
 |   763    0.58333   0.16667   0.00000   |    1.48557   1.34780   0.00000    |
 |   764    0.58333   0.19444   0.00000   |    1.48557   1.42949   0.00000    |
 |   765    0.58333   0.22222   0.00000   |    1.48557   1.51117   0.00000    |
 |   766    0.58333   0.25000   0.00000   |    1.48557   1.59286   0.00000    |
 |   767    0.58333   0.27778   0.00000   |    1.48557   1.67454   0.00000    |
 |   768    0.58333   0.30556   0.00000   |    1.48557   1.75623   0.00000    |
 |   769    0.58333   0.33333   0.00000   |    1.48557   1.83791   0.00000    |
 |   770    0.58333   0.36111   0.00000   |    1.48557   1.91960   0.00000    |
 |   771    0.58333   0.38889   0.00000   |    1.48557   2.00129   0.00000    |
 |   772    0.58333   0.41667   0.00000   |    1.48557   2.08297   0.00000    |
 |   773    0.58333   0.44444   0.00000   |    1.48557   2.16466   0.00000    |
 |   774    0.58333   0.47222   0.00000   |    1.48557   2.24634   0.00000    |
 |   775    0.58333   0.50000   0.00000   |    1.48557   2.32803   0.00000    |
 |   776    0.58333   0.52778   0.00000   |    1.48557   2.40971   0.00000    |
 |   777    0.58333   0.55556   0.00000   |    1.48557   2.49140   0.00000    |
 |   778    0.58333   0.58333   0.00000   |    1.48557   2.57308   0.00000    |
 |   779    0.58333   0.61111   0.00000   |    1.48557   2.65477   0.00000    |
 |   780    0.58333   0.63889   0.00000   |    1.48557   2.73645   0.00000    |
 |   781    0.58333   0.66667   0.00000   |    1.48557   2.81814   0.00000    |
 |   782    0.58333   0.69444   0.00000   |    1.48557   2.89982   0.00000    |
 |   783    0.58333   0.72222   0.00000   |    1.48557   2.98151   0.00000    |
 |   784    0.58333   0.75000   0.00000   |    1.48557   3.06319   0.00000    |
 |   785    0.58333   0.77778   0.00000   |    1.48557   3.14488   0.00000    |
 |   786    0.58333   0.80556   0.00000   |    1.48557   3.22656   0.00000    |
 |   787    0.58333   0.83333   0.00000   |    1.48557   3.30825   0.00000    |
 |   788    0.58333   0.86111   0.00000   |    1.48557   3.38993   0.00000    |
 |   789    0.58333   0.88889   0.00000   |    1.48557   3.47162   0.00000    |
 |   790    0.58333   0.91667   0.00000   |    1.48557   3.55330   0.00000    |
 |   791    0.58333   0.94444   0.00000   |    1.48557   3.63499   0.00000    |
 |   792    0.58333   0.97222   0.00000   |    1.48557   3.71667   0.00000    |
 |   793    0.61111   0.00000   0.00000   |    1.55631   0.89854   0.00000    |
 |   794    0.61111   0.02778   0.00000   |    1.55631   0.98022   0.00000    |
 |   795    0.61111   0.05556   0.00000   |    1.55631   1.06191   0.00000    |
 |   796    0.61111   0.08333   0.00000   |    1.55631   1.14359   0.00000    |
 |   797    0.61111   0.11111   0.00000   |    1.55631   1.22528   0.00000    |
 |   798    0.61111   0.13889   0.00000   |    1.55631   1.30696   0.00000    |
 |   799    0.61111   0.16667   0.00000   |    1.55631   1.38865   0.00000    |
 |   800    0.61111   0.19444   0.00000   |    1.55631   1.47033   0.00000    |
 |   801    0.61111   0.22222   0.00000   |    1.55631   1.55202   0.00000    |
 |   802    0.61111   0.25000   0.00000   |    1.55631   1.63370   0.00000    |
 |   803    0.61111   0.27778   0.00000   |    1.55631   1.71539   0.00000    |
 |   804    0.61111   0.30556   0.00000   |    1.55631   1.79707   0.00000    |
 |   805    0.61111   0.33333   0.00000   |    1.55631   1.87876   0.00000    |
 |   806    0.61111   0.36111   0.00000   |    1.55631   1.96044   0.00000    |
 |   807    0.61111   0.38889   0.00000   |    1.55631   2.04213   0.00000    |
 |   808    0.61111   0.41667   0.00000   |    1.55631   2.12381   0.00000    |
 |   809    0.61111   0.44444   0.00000   |    1.55631   2.20550   0.00000    |
 |   810    0.61111   0.47222   0.00000   |    1.55631   2.28718   0.00000    |
 |   811    0.61111   0.50000   0.00000   |    1.55631   2.36887   0.00000    |
 |   812    0.61111   0.52778   0.00000   |    1.55631   2.45055   0.00000    |
 |   813    0.61111   0.55556   0.00000   |    1.55631   2.53224   0.00000    |
 |   814    0.61111   0.58333   0.00000   |    1.55631   2.61392   0.00000    |
 |   815    0.61111   0.61111   0.00000   |    1.55631   2.69561   0.00000    |
 |   816    0.61111   0.63889   0.00000   |    1.55631   2.77729   0.00000    |
 |   817    0.61111   0.66667   0.00000   |    1.55631   2.85898   0.00000    |
 |   818    0.61111   0.69444   0.00000   |    1.55631   2.94066   0.00000    |
 |   819    0.61111   0.72222   0.00000   |    1.55631   3.02235   0.00000    |
 |   820    0.61111   0.75000   0.00000   |    1.55631   3.10403   0.00000    |
 |   821    0.61111   0.77778   0.00000   |    1.55631   3.18572   0.00000    |
 |   822    0.61111   0.80556   0.00000   |    1.55631   3.26740   0.00000    |
 |   823    0.61111   0.83333   0.00000   |    1.55631   3.34909   0.00000    |
 |   824    0.61111   0.86111   0.00000   |    1.55631   3.43077   0.00000    |
 |   825    0.61111   0.88889   0.00000   |    1.55631   3.51246   0.00000    |
 |   826    0.61111   0.91667   0.00000   |    1.55631   3.59414   0.00000    |
 |   827    0.61111   0.94444   0.00000   |    1.55631   3.67583   0.00000    |
 |   828    0.61111   0.97222   0.00000   |    1.55631   3.75752   0.00000    |
 |   829    0.63889   0.00000   0.00000   |    1.62705   0.93938   0.00000    |
 |   830    0.63889   0.02778   0.00000   |    1.62705   1.02106   0.00000    |
 |   831    0.63889   0.05556   0.00000   |    1.62705   1.10275   0.00000    |
 |   832    0.63889   0.08333   0.00000   |    1.62705   1.18443   0.00000    |
 |   833    0.63889   0.11111   0.00000   |    1.62705   1.26612   0.00000    |
 |   834    0.63889   0.13889   0.00000   |    1.62705   1.34780   0.00000    |
 |   835    0.63889   0.16667   0.00000   |    1.62705   1.42949   0.00000    |
 |   836    0.63889   0.19444   0.00000   |    1.62705   1.51117   0.00000    |
 |   837    0.63889   0.22222   0.00000   |    1.62705   1.59286   0.00000    |
 |   838    0.63889   0.25000   0.00000   |    1.62705   1.67454   0.00000    |
 |   839    0.63889   0.27778   0.00000   |    1.62705   1.75623   0.00000    |
 |   840    0.63889   0.30556   0.00000   |    1.62705   1.83791   0.00000    |
 |   841    0.63889   0.33333   0.00000   |    1.62705   1.91960   0.00000    |
 |   842    0.63889   0.36111   0.00000   |    1.62705   2.00129   0.00000    |
 |   843    0.63889   0.38889   0.00000   |    1.62705   2.08297   0.00000    |
 |   844    0.63889   0.41667   0.00000   |    1.62705   2.16466   0.00000    |
 |   845    0.63889   0.44444   0.00000   |    1.62705   2.24634   0.00000    |
 |   846    0.63889   0.47222   0.00000   |    1.62705   2.32803   0.00000    |
 |   847    0.63889   0.50000   0.00000   |    1.62705   2.40971   0.00000    |
 |   848    0.63889   0.52778   0.00000   |    1.62705   2.49140   0.00000    |
 |   849    0.63889   0.55556   0.00000   |    1.62705   2.57308   0.00000    |
 |   850    0.63889   0.58333   0.00000   |    1.62705   2.65477   0.00000    |
 |   851    0.63889   0.61111   0.00000   |    1.62705   2.73645   0.00000    |
 |   852    0.63889   0.63889   0.00000   |    1.62705   2.81814   0.00000    |
 |   853    0.63889   0.66667   0.00000   |    1.62705   2.89982   0.00000    |
 |   854    0.63889   0.69444   0.00000   |    1.62705   2.98151   0.00000    |
 |   855    0.63889   0.72222   0.00000   |    1.62705   3.06319   0.00000    |
 |   856    0.63889   0.75000   0.00000   |    1.62705   3.14488   0.00000    |
 |   857    0.63889   0.77778   0.00000   |    1.62705   3.22656   0.00000    |
 |   858    0.63889   0.80556   0.00000   |    1.62705   3.30825   0.00000    |
 |   859    0.63889   0.83333   0.00000   |    1.62705   3.38993   0.00000    |
 |   860    0.63889   0.86111   0.00000   |    1.62705   3.47162   0.00000    |
 |   861    0.63889   0.88889   0.00000   |    1.62705   3.55330   0.00000    |
 |   862    0.63889   0.91667   0.00000   |    1.62705   3.63499   0.00000    |
 |   863    0.63889   0.94444   0.00000   |    1.62705   3.71667   0.00000    |
 |   864    0.63889   0.97222   0.00000   |    1.62705   3.79836   0.00000    |
 |   865    0.66667  -0.00000   0.00000   |    1.69779   0.98022   0.00000    |
 |   866    0.66667   0.02778   0.00000   |    1.69779   1.06191   0.00000    |
 |   867    0.66667   0.05556   0.00000   |    1.69779   1.14359   0.00000    |
 |   868    0.66667   0.08333   0.00000   |    1.69779   1.22528   0.00000    |
 |   869    0.66667   0.11111   0.00000   |    1.69779   1.30696   0.00000    |
 |   870    0.66667   0.13889   0.00000   |    1.69779   1.38865   0.00000    |
 |   871    0.66667   0.16667   0.00000   |    1.69779   1.47033   0.00000    |
 |   872    0.66667   0.19444   0.00000   |    1.69779   1.55202   0.00000    |
 |   873    0.66667   0.22222   0.00000   |    1.69779   1.63370   0.00000    |
 |   874    0.66667   0.25000   0.00000   |    1.69779   1.71539   0.00000    |
 |   875    0.66667   0.27778   0.00000   |    1.69779   1.79707   0.00000    |
 |   876    0.66667   0.30556   0.00000   |    1.69779   1.87876   0.00000    |
 |   877    0.66667   0.33333   0.00000   |    1.69779   1.96044   0.00000    |
 |   878    0.66667   0.36111   0.00000   |    1.69779   2.04213   0.00000    |
 |   879    0.66667   0.38889   0.00000   |    1.69779   2.12381   0.00000    |
 |   880    0.66667   0.41667   0.00000   |    1.69779   2.20550   0.00000    |
 |   881    0.66667   0.44444   0.00000   |    1.69779   2.28718   0.00000    |
 |   882    0.66667   0.47222   0.00000   |    1.69779   2.36887   0.00000    |
 |   883    0.66667   0.50000   0.00000   |    1.69779   2.45055   0.00000    |
 |   884    0.66667   0.52778   0.00000   |    1.69779   2.53224   0.00000    |
 |   885    0.66667   0.55556   0.00000   |    1.69779   2.61392   0.00000    |
 |   886    0.66667   0.58333   0.00000   |    1.69779   2.69561   0.00000    |
 |   887    0.66667   0.61111   0.00000   |    1.69779   2.77729   0.00000    |
 |   888    0.66667   0.63889   0.00000   |    1.69779   2.85898   0.00000    |
 |   889    0.66667   0.66667   0.00000   |    1.69779   2.94066   0.00000    |
 |   890    0.66667   0.69444   0.00000   |    1.69779   3.02235   0.00000    |
 |   891    0.66667   0.72222   0.00000   |    1.69779   3.10403   0.00000    |
 |   892    0.66667   0.75000   0.00000   |    1.69779   3.18572   0.00000    |
 |   893    0.66667   0.77778   0.00000   |    1.69779   3.26740   0.00000    |
 |   894    0.66667   0.80556   0.00000   |    1.69779   3.34909   0.00000    |
 |   895    0.66667   0.83333   0.00000   |    1.69779   3.43077   0.00000    |
 |   896    0.66667   0.86111   0.00000   |    1.69779   3.51246   0.00000    |
 |   897    0.66667   0.88889   0.00000   |    1.69779   3.59414   0.00000    |
 |   898    0.66667   0.91667   0.00000   |    1.69779   3.67583   0.00000    |
 |   899    0.66667   0.94444   0.00000   |    1.69779   3.75752   0.00000    |
 |   900    0.66667   0.97222   0.00000   |    1.69779   3.83920   0.00000    |
 |   901    0.69444   0.00000   0.00000   |    1.76853   1.02106   0.00000    |
 |   902    0.69444   0.02778   0.00000   |    1.76853   1.10275   0.00000    |
 |   903    0.69444   0.05556   0.00000   |    1.76853   1.18443   0.00000    |
 |   904    0.69444   0.08333   0.00000   |    1.76853   1.26612   0.00000    |
 |   905    0.69444   0.11111   0.00000   |    1.76853   1.34780   0.00000    |
[...]
  WF centre and spread    1  ( -0.000000,  1.424437, 10.000000 )     0.97766846
  WF centre and spread    2  (  1.233598,  0.712218, 10.000000 )     0.97766846
  Sum of centres and spreads (  1.233598,  2.136655, 20.000000 )     1.95533691
 
     18    -0.185E-08     0.0000335053        1.9553362646      98.82  <-- CONV
        O_D=      0.0133039 O_OD=      0.0005007 O_TOT=      1.9553363 <-- SPRD
 Delta: O_D= -0.1853471E-08 O_OD= -0.6505213E-17 O_TOT= -0.1853471E-08 <-- DLTA
 ------------------------------------------------------------------------------
 Cycle:     19
  WF centre and spread    1  ( -0.000000,  1.424437, 10.000000 )     0.97766846
  WF centre and spread    2  (  1.233598,  0.712218, 10.000000 )     0.97766846
  Sum of centres and spreads (  1.233598,  2.136655, 20.000000 )     1.95533691
 
     19    -0.785E-09     0.0000342098        1.9553362638      98.85  <-- CONV
        O_D=      0.0133039 O_OD=      0.0005007 O_TOT=      1.9553363 <-- SPRD
 Delta: O_D= -0.7854266E-09 O_OD=  0.7914676E-17 O_TOT= -0.7854266E-09 <-- DLTA
 ------------------------------------------------------------------------------
 Cycle:     20
  WF centre and spread    1  ( -0.000000,  1.424437, 10.000000 )     0.97766846
  WF centre and spread    2  (  1.233598,  0.712218, 10.000000 )     0.97766846
  Sum of centres and spreads (  1.233598,  2.136655, 20.000000 )     1.95533691
 
     20    -0.730E-09     0.0000315848        1.9553362630      98.88  <-- CONV
        O_D=      0.0133039 O_OD=      0.0005007 O_TOT=      1.9553363 <-- SPRD
 Delta: O_D= -0.7296587E-09 O_OD= -0.7155734E-17 O_TOT= -0.7296588E-09 <-- DLTA
 ------------------------------------------------------------------------------
 Cycle:     21
  WF centre and spread    1  ( -0.000000,  1.424437, 10.000000 )     0.97766846
  WF centre and spread    2  (  1.233598,  0.712218, 10.000000 )     0.97766846
  Sum of centres and spreads (  1.233598,  2.136655, 20.000000 )     1.95533691
 
     21    -0.643E-09     0.0000254351        1.9553362624      98.91  <-- CONV
        O_D=      0.0133039 O_OD=      0.0005007 O_TOT=      1.9553363 <-- SPRD
 Delta: O_D= -0.6433132E-09 O_OD=  0.4119968E-17 O_TOT= -0.6433132E-09 <-- DLTA
 ------------------------------------------------------------------------------
 Cycle:     22
  WF centre and spread    1  ( -0.000000,  1.424437, 10.000000 )     0.97766846
  WF centre and spread    2  (  1.233598,  0.712218, 10.000000 )     0.97766846
  Sum of centres and spreads (  1.233598,  2.136655, 20.000000 )     1.95533691
 
     22    -0.664E-12     0.0000179201        1.9553362624      98.92  <-- CONV
        O_D=      0.0133039 O_OD=      0.0005007 O_TOT=      1.9553363 <-- SPRD
 Delta: O_D= -0.6639498E-12 O_OD= -0.4336809E-18 O_TOT= -0.6639134E-12 <-- DLTA
 ------------------------------------------------------------------------------
 Cycle:     23
  WF centre and spread    1  ( -0.000000,  1.424437, 10.000000 )     0.97766846
  WF centre and spread    2  (  1.233598,  0.712218, 10.000000 )     0.97766846
  Sum of centres and spreads (  1.233598,  2.136655, 20.000000 )     1.95533691
 
     23    -0.370E-09     0.0000179059        1.9553362620      98.95  <-- CONV
        O_D=      0.0133039 O_OD=      0.0005007 O_TOT=      1.9553363 <-- SPRD
 Delta: O_D= -0.3702234E-09 O_OD=  0.3035766E-17 O_TOT= -0.3702234E-09 <-- DLTA
 ------------------------------------------------------------------------------
 Cycle:     24
  WF centre and spread    1  ( -0.000000,  1.424437, 10.000000 )     0.97766846
  WF centre and spread    2  (  1.233598,  0.712218, 10.000000 )     0.97766846
  Sum of centres and spreads (  1.233598,  2.136655, 20.000000 )     1.95533691
 
     24    -0.434E-12     0.0000144878        1.9553362620      98.97  <-- CONV
        O_D=      0.0133039 O_OD=      0.0005007 O_TOT=      1.9553363 <-- SPRD
 Delta: O_D= -0.4341475E-12 O_OD=  0.2168404E-18 O_TOT= -0.4340972E-12 <-- DLTA
 ------------------------------------------------------------------------------
 Cycle:     25
  WF centre and spread    1  ( -0.000000,  1.424437, 10.000000 )     0.97766846
  WF centre and spread    2  (  1.233598,  0.712218, 10.000000 )     0.97766846
  Sum of centres and spreads (  1.233598,  2.136655, 20.000000 )     1.95533691
 
     25    -0.339E-12     0.0000144879        1.9553362620      98.99  <-- CONV
        O_D=      0.0133039 O_OD=      0.0005007 O_TOT=      1.9553363 <-- SPRD
 Delta: O_D= -0.3384827E-12 O_OD= -0.1084202E-18 O_TOT= -0.3386180E-12 <-- DLTA
 ------------------------------------------------------------------------------
 Cycle:     26
  WF centre and spread    1  ( -0.000000,  1.424437, 10.000000 )     0.97766846
  WF centre and spread    2  (  1.233598,  0.712218, 10.000000 )     0.97766846
  Sum of centres and spreads (  1.233598,  2.136655, 20.000000 )     1.95533691
 
     26    -0.144E-09     0.0000144710        1.9553362619      99.02  <-- CONV
        O_D=      0.0133039 O_OD=      0.0005007 O_TOT=      1.9553363 <-- SPRD
 Delta: O_D= -0.1442607E-09 O_OD=  0.6505213E-18 O_TOT= -0.1442606E-09 <-- DLTA
 ------------------------------------------------------------------------------
 Cycle:     27
  WF centre and spread    1  ( -0.000000,  1.424437, 10.000000 )     0.97766846
  WF centre and spread    2  (  1.233598,  0.712218, 10.000000 )     0.97766846
  Sum of centres and spreads (  1.233598,  2.136655, 20.000000 )     1.95533691
 
     27    -0.214E-12     0.0000110257        1.9553362619      99.03  <-- CONV
        O_D=      0.0133039 O_OD=      0.0005007 O_TOT=      1.9553363 <-- SPRD
 Delta: O_D= -0.2138498E-12 O_OD= -0.9757820E-18 O_TOT= -0.2138290E-12 <-- DLTA
 ------------------------------------------------------------------------------
 Cycle:     28
  WF centre and spread    1  ( -0.000000,  1.424437, 10.000000 )     0.97766846
  WF centre and spread    2  (  1.233598,  0.712218, 10.000000 )     0.97766846
  Sum of centres and spreads (  1.233598,  2.136655, 20.000000 )     1.95533691
 
     28    -0.410E-12     0.0000110304        1.9553362619      99.05  <-- CONV
        O_D=      0.0133039 O_OD=      0.0005007 O_TOT=      1.9553363 <-- SPRD
 Delta: O_D= -0.4101285E-12 O_OD= -0.7589415E-18 O_TOT= -0.4101164E-12 <-- DLTA
 ------------------------------------------------------------------------------
 Cycle:     29
  WF centre and spread    1  ( -0.000000,  1.424437, 10.000000 )     0.97766846
  WF centre and spread    2  (  1.233598,  0.712218, 10.000000 )     0.97766846
  Sum of centres and spreads (  1.233598,  2.136655, 20.000000 )     1.95533691
 
     29    -0.606E-12     0.0000110253        1.9553362619      99.06  <-- CONV
        O_D=      0.0133039 O_OD=      0.0005007 O_TOT=      1.9553363 <-- SPRD
 Delta: O_D= -0.6053838E-12 O_OD= -0.6505213E-18 O_TOT= -0.6055156E-12 <-- DLTA
 ------------------------------------------------------------------------------
 Cycle:     30
  WF centre and spread    1  ( -0.000000,  1.424437, 10.000000 )     0.97766846
  WF centre and spread    2  (  1.233598,  0.712218, 10.000000 )     0.97766846
  Sum of centres and spreads (  1.233598,  2.136655, 20.000000 )     1.95533691
 
     30    -0.249E-09     0.0000110106        1.9553362616      99.09  <-- CONV
        O_D=      0.0133039 O_OD=      0.0005007 O_TOT=      1.9553363 <-- SPRD
 Delta: O_D= -0.2494811E-09 O_OD=  0.1517883E-17 O_TOT= -0.2494811E-09 <-- DLTA
 ------------------------------------------------------------------------------
 Cycle:     31
  WF centre and spread    1  ( -0.000000,  1.424437, 10.000000 )     0.97766846
  WF centre and spread    2  (  1.233598,  0.712218, 10.000000 )     0.97766846
  Sum of centres and spreads (  1.233598,  2.136655, 20.000000 )     1.95533691
 
     31    -0.970E-10     0.0000147639        1.9553362615      99.12  <-- CONV
        O_D=      0.0133039 O_OD=      0.0005007 O_TOT=      1.9553363 <-- SPRD
 Delta: O_D= -0.9700277E-10 O_OD= -0.1084202E-18 O_TOT= -0.9700263E-10 <-- DLTA
 ------------------------------------------------------------------------------
 Cycle:     32
  WF centre and spread    1  ( -0.000000,  1.424437, 10.000000 )     0.97766846
  WF centre and spread    2  (  1.233598,  0.712218, 10.000000 )     0.97766846
  Sum of centres and spreads (  1.233598,  2.136655, 20.000000 )     1.95533691
 
     32    -0.135E-12     0.0000077848        1.9553362615      99.14  <-- CONV
        O_D=      0.0133039 O_OD=      0.0005007 O_TOT=      1.9553363 <-- SPRD
 Delta: O_D= -0.1352928E-12 O_OD=  0.2168404E-18 O_TOT= -0.1352252E-12 <-- DLTA
 ------------------------------------------------------------------------------
 Cycle:     33
  WF centre and spread    1  ( -0.000000,  1.424437, 10.000000 )     0.97766846
  WF centre and spread    2  (  1.233598,  0.712218, 10.000000 )     0.97766846
  Sum of centres and spreads (  1.233598,  2.136655, 20.000000 )     1.95533691
 
     33    -0.233E-12     0.0000077808        1.9553362615      99.15  <-- CONV
        O_D=      0.0133039 O_OD=      0.0005007 O_TOT=      1.9553363 <-- SPRD
 Delta: O_D= -0.2326750E-12 O_OD= -0.1192622E-17 O_TOT= -0.2327027E-12 <-- DLTA
 ------------------------------------------------------------------------------
 Cycle:     34
  WF centre and spread    1  ( -0.000000,  1.424437, 10.000000 )     0.97766846
  WF centre and spread    2  (  1.233598,  0.712218, 10.000000 )     0.97766846
  Sum of centres and spreads (  1.233598,  2.136655, 20.000000 )     1.95533691
 
     34    -0.330E-12     0.0000077749        1.9553362615      99.17  <-- CONV
        O_D=      0.0133039 O_OD=      0.0005007 O_TOT=      1.9553363 <-- SPRD
 Delta: O_D= -0.3295090E-12 O_OD= -0.5421011E-18 O_TOT= -0.3295142E-12 <-- DLTA
 ------------------------------------------------------------------------------
 Cycle:     35
  WF centre and spread    1  ( -0.000000,  1.424437, 10.000000 )     0.97766846
  WF centre and spread    2  (  1.233598,  0.712218, 10.000000 )     0.97766846
  Sum of centres and spreads (  1.233598,  2.136655, 20.000000 )     1.95533691
 
     35    -0.426E-12     0.0000077672        1.9553362615      99.18  <-- CONV
        O_D=      0.0133039 O_OD=      0.0005007 O_TOT=      1.9553363 <-- SPRD
 Delta: O_D= -0.4255415E-12 O_OD= -0.5421011E-18 O_TOT= -0.4256595E-12 <-- DLTA
 ------------------------------------------------------------------------------
 Cycle:     36
  WF centre and spread    1  ( -0.000000,  1.424437, 10.000000 )     0.97766846
  WF centre and spread    2  (  1.233598,  0.712218, 10.000000 )     0.97766846
  Sum of centres and spreads (  1.233598,  2.136655, 20.000000 )     1.95533691
 
     36    -0.152E-09     0.0000077576        1.9553362614      99.21  <-- CONV
        O_D=      0.0133039 O_OD=      0.0005007 O_TOT=      1.9553363 <-- SPRD
 Delta: O_D= -0.1524074E-09 O_OD= -0.4336809E-18 O_TOT= -0.1524074E-09 <-- DLTA
 ------------------------------------------------------------------------------
 Cycle:     37
  WF centre and spread    1  ( -0.000000,  1.424437, 10.000000 )     0.97766846
  WF centre and spread    2  (  1.233598,  0.712218, 10.000000 )     0.97766846
  Sum of centres and spreads (  1.233598,  2.136655, 20.000000 )     1.95533691
 
     37    -0.337E-12     0.0000144613        1.9553362614      99.23  <-- CONV
        O_D=      0.0133039 O_OD=      0.0005007 O_TOT=      1.9553363 <-- SPRD
 Delta: O_D= -0.3372042E-12 O_OD=  0.1409463E-17 O_TOT= -0.3370637E-12 <-- DLTA
 ------------------------------------------------------------------------------
 Cycle:     38
  WF centre and spread    1  ( -0.000000,  1.424437, 10.000000 )     0.97766846
  WF centre and spread    2  (  1.233598,  0.712218, 10.000000 )     0.97766846
  Sum of centres and spreads (  1.233598,  2.136655, 20.000000 )     1.95533691
 
     38    -0.104E-09     0.0000144381        1.9553362613      99.26  <-- CONV
        O_D=      0.0133039 O_OD=      0.0005007 O_TOT=      1.9553363 <-- SPRD
 Delta: O_D= -0.1042314E-09 O_OD=  0.3577867E-17 O_TOT= -0.1042313E-09 <-- DLTA
 ------------------------------------------------------------------------------
 Cycle:     39
  WF centre and spread    1  ( -0.000000,  1.424437, 10.000000 )     0.97766846
  WF centre and spread    2  (  1.233598,  0.712218, 10.000000 )     0.97766846
  Sum of centres and spreads (  1.233598,  2.136655, 20.000000 )     1.95533691
 
     39    -0.890E-13     0.0000069369        1.9553362613      99.28  <-- CONV
        O_D=      0.0133039 O_OD=      0.0005007 O_TOT=      1.9553363 <-- SPRD
 Delta: O_D= -0.8914917E-13 O_OD=  0.0000000E+00 O_TOT= -0.8903989E-13 <-- DLTA
 ------------------------------------------------------------------------------
 Cycle:     40
  WF centre and spread    1  ( -0.000000,  1.424437, 10.000000 )     0.97766846
  WF centre and spread    2  (  1.233598,  0.712218, 10.000000 )     0.97766846
  Sum of centres and spreads (  1.233598,  2.136655, 20.000000 )     1.95533691
 
     40    -0.167E-12     0.0000069375        1.9553362613      99.29  <-- CONV
        O_D=      0.0133039 O_OD=      0.0005007 O_TOT=      1.9553363 <-- SPRD
 Delta: O_D= -0.1669307E-12 O_OD=  0.9757820E-18 O_TOT= -0.1669775E-12 <-- DLTA
 ------------------------------------------------------------------------------
 Cycle:     41
  WF centre and spread    1  ( -0.000000,  1.424437, 10.000000 )     0.97766846
  WF centre and spread    2  (  1.233598,  0.712218, 10.000000 )     0.97766846
  Sum of centres and spreads (  1.233598,  2.136655, 20.000000 )     1.95533691
 
     41    -0.244E-12     0.0000069350        1.9553362613      99.31  <-- CONV
        O_D=      0.0133039 O_OD=      0.0005007 O_TOT=      1.9553363 <-- SPRD
 Delta: O_D= -0.2441207E-12 O_OD= -0.1301043E-17 O_TOT= -0.2442491E-12 <-- DLTA
 ------------------------------------------------------------------------------
 Cycle:     42
  WF centre and spread    1  ( -0.000000,  1.424437, 10.000000 )     0.97766846
  WF centre and spread    2  (  1.233598,  0.712218, 10.000000 )     0.97766846
  Sum of centres and spreads (  1.233598,  2.136655, 20.000000 )     1.95533691
 
     42    -0.321E-12     0.0000069294        1.9553362613      99.32  <-- CONV
        O_D=      0.0133039 O_OD=      0.0005007 O_TOT=      1.9553363 <-- SPRD
 Delta: O_D= -0.3210817E-12 O_OD=  0.1084202E-17 O_TOT= -0.3210765E-12 <-- DLTA
 ------------------------------------------------------------------------------
 Cycle:     43
  WF centre and spread    1  ( -0.000000,  1.424437, 10.000000 )     0.97766846
  WF centre and spread    2  (  1.233598,  0.712218, 10.000000 )     0.97766846
  Sum of centres and spreads (  1.233598,  2.136655, 20.000000 )     1.95533691
 
     43    -0.775E-13     0.0000069208        1.9553362613      99.34  <-- CONV
        O_D=      0.0133039 O_OD=      0.0005007 O_TOT=      1.9553363 <-- SPRD
 Delta: O_D= -0.7730969E-13 O_OD= -0.1517883E-17 O_TOT= -0.7749357E-13 <-- DLTA
 ------------------------------------------------------------------------------
 Cycle:     44
  WF centre and spread    1  ( -0.000000,  1.424437, 10.000000 )     0.97766846
  WF centre and spread    2  (  1.233598,  0.712218, 10.000000 )     0.97766846
  Sum of centres and spreads (  1.233598,  2.136655, 20.000000 )     1.95533691
 
     44    -0.154E-12     0.0000069177        1.9553362613      99.35  <-- CONV
        O_D=      0.0133039 O_OD=      0.0005007 O_TOT=      1.9553363 <-- SPRD
 Delta: O_D= -0.1542690E-12 O_OD=  0.9757820E-18 O_TOT= -0.1540990E-12 <-- DLTA
 ------------------------------------------------------------------------------
 Cycle:     45
  WF centre and spread    1  ( -0.000000,  1.424437, 10.000000 )     0.97766846
  WF centre and spread    2  (  1.233598,  0.712218, 10.000000 )     0.97766846
  Sum of centres and spreads (  1.233598,  2.136655, 20.000000 )     1.95533691
 
     45    -0.231E-12     0.0000069115        1.9553362613      99.37  <-- CONV
        O_D=      0.0133039 O_OD=      0.0005007 O_TOT=      1.9553363 <-- SPRD
 Delta: O_D= -0.2308848E-12 O_OD= -0.1517883E-17 O_TOT= -0.2309264E-12 <-- DLTA
 ------------------------------------------------------------------------------
 Cycle:     46
  WF centre and spread    1  ( -0.000000,  1.424437, 10.000000 )     0.97766846
  WF centre and spread    2  (  1.233598,  0.712218, 10.000000 )     0.97766846
  Sum of centres and spreads (  1.233598,  2.136655, 20.000000 )     1.95533691
 
     46    -0.307E-12     0.0000069024        1.9553362613      99.39  <-- CONV
        O_D=      0.0133039 O_OD=      0.0005007 O_TOT=      1.9553363 <-- SPRD
 Delta: O_D= -0.3068171E-12 O_OD= -0.4336809E-18 O_TOT= -0.3068656E-12 <-- DLTA
 ------------------------------------------------------------------------------
 Cycle:     47
  WF centre and spread    1  ( -0.000000,  1.424437, 10.000000 )     0.97766846
  WF centre and spread    2  (  1.233598,  0.712218, 10.000000 )     0.97766846
  Sum of centres and spreads (  1.233598,  2.136655, 20.000000 )     1.95533691
 
     47    -0.382E-12     0.0000068903        1.9553362613      99.40  <-- CONV
        O_D=      0.0133039 O_OD=      0.0005007 O_TOT=      1.9553363 <-- SPRD
 Delta: O_D= -0.3816236E-12 O_OD=  0.1084202E-18 O_TOT= -0.3816947E-12 <-- DLTA
 ------------------------------------------------------------------------------
 Cycle:     48
  WF centre and spread    1  ( -0.000000,  1.424437, 10.000000 )     0.97766846
  WF centre and spread    2  (  1.233598,  0.712218, 10.000000 )     0.97766846
  Sum of centres and spreads (  1.233598,  2.136655, 20.000000 )     1.95533691
 
     48    -0.870E-10     0.0000068753        1.9553362612      99.43  <-- CONV
        O_D=      0.0133039 O_OD=      0.0005007 O_TOT=      1.9553363 <-- SPRD
 Delta: O_D= -0.8701583E-10 O_OD= -0.2493665E-17 O_TOT= -0.8701573E-10 <-- DLTA
 ------------------------------------------------------------------------------

             <<<     Delta < 1.000E-10  over 10 iterations     >>>
             <<< Wannierisation convergence criteria satisfied >>>

 Final State
  WF centre and spread    1  ( -0.000000,  1.424437, 10.000000 )     0.97766846
  WF centre and spread    2  (  1.233598,  0.712218, 10.000000 )     0.97766846
  Sum of centres and spreads (  1.233598,  2.136655, 20.000000 )     1.95533691
 
         Spreads (Ang^2)       Omega I      =     1.941531608
        ================       Omega D      =     0.013303928
                               Omega OD     =     0.000500725
    Final Spread (Ang^2)       Omega Total  =     1.955336261
 ------------------------------------------------------------------------------

 Writing checkpoint file graphene.chk... done

 Time for wannierise            1.138 (sec)
 *---------------------------------------------------------------------------*
 |                               PLOTTING                                    |
 *---------------------------------------------------------------------------*
 
 Time for plotting              0.449 (sec)
 Total Execution Time          87.659 (sec)

 *===========================================================================*
 |                             TIMING INFORMATION                            |
 *===========================================================================*
 |    Tag                                                Ncalls      Time (s)|
 |---------------------------------------------------------------------------|
 |kmesh: get                                        :         2         1.318|
 |kmesh: write                                      :         1         0.014|
 |overlap: allocate                                 :         1         0.001|
 |dis: main                                         :         1        85.258|
 |wann: main                                        :         1         1.136|
 |plot: main                                        :         1         0.449|
 *---------------------------------------------------------------------------*
 
 All done: wannier90 exiting
