 written on 25Jun2022 at 16:46:07 
           2
        1309
    1    1    2    1    1    1    1    1    2    1    1    1    1    1    1
    1    1    2    1    1    1    1    1    1    1    1    1    1    1    2
    1    1    1    1    1    1    1    1    1    1    1    1    1    1    2
    2    1    1    1    1    1    1    1    1    1    1    1    1    1    1
    1    1    1    2    1    1    1    1    1    1    1    1    1    1    1
    1    1    1    1    1    1    1    1    1    1    2    1    1    1    1
    1    1    1    1    1    1    1    1    1    1    1    1    1    1    1
    1    1    1    1    1    2    1    1    1    1    1    1    1    1    1
    1    1    1    1    1    1    1    1    1    1    1    1    1    1    1
    1    1    1    2    1    1    1    1    1    1    1    1    1    1    1
    1    1    1    1    1    1    1    1    1    1    1    1    1    1    1
    1    1    1    1    2    1    1    1    1    1    1    1    1    1    1
    1    1    1    1    1    1    1    1    1    1    1    1    1    1    1
    1    1    1    1    1    1    1    1    2    1    1    1    1    1    1
    1    1    1    1    1    1    1    1    1    1    1    1    1    1    1
    1    1    1    1    1    1    1    1    1    1    1    1    1    1    1
    1    1    1    1    1    1    1    1    1    1    1    1    1    1    1
    1    1    1    1    1    1    1    1    1    1    1    1    1    1    1
    1    1    1    1    1    1    1    1    1    1    1    1    1    1    1
    1    1    1    1    1    1    1    1    1    1    1    1    1    1    1
    1    1    1    1    1    1    1    1    1    1    1    1    1    1    1
    1    1    1    1    1    1    1    1    1    1    1    1    1    1    1
    1    1    1    1    1    1    1    1    1    1    1    1    1    1    1
    1    1    1    1    1    1    1    1    1    1    1    1    1    1    1
    1    1    1    1    1    1    1    1    1    1    1    1    1    1    1
    1    1    1    1    1    1    1    1    1    1    1    1    1    1    1
    1    1    1    1    1    1    1    1    1    1    1    1    1    1    1
    1    1    1    1    1    1    1    1    1    1    1    1    1    1    1
    1    1    1    1    1    1    1    1    1    1    1    1    1    1    1
    1    1    1    1    1    1    1    1    1    1    1    1    1    1    1
    1    1    1    1    1    1    1    1    1    1    1    1    1    1    1
    1    1    1    1    1    1    1    1    1    1    1    1    1    1    1
    1    1    1    1    1    1    1    1    1    1    1    1    1    1    1
    1    1    1    1    1    1    1    1    1    1    1    1    1    1    1
    1    1    1    1    1    1    1    1    1    1    1    1    1    1    1
    1    1    1    1    1    1    1    1    1    1    1    1    1    1    1
    1    1    1    1    1    1    1    1    1    1    1    1    1    1    1
    1    1    1    1    1    1    1    1    1    1    1    1    1    1    1
    1    1    1    1    1    1    1    1    1    1    1    1    1    1    1
    1    1    1    1    1    1    1    1    1    1    1    1    1    1    1
    1    1    1    1    1    1    1    1    1    1    1    1    1    1    1
    1    1    1    1    1    1    1    1    1    1    1    1    1    1    1
    1    1    1    1    1    1    2    1    1    1    1    1    1    1    1
    1    1    1    1    1    1    1    1    1    1    1    1    1    1    1
    1    1    1    1    1    1    1    1    1    1    1    1    2    1    1
    1    1    1    1    1    1    1    1    1    1    1    1    1    1    1
    1    1    1    1    1    1    1    1    1    1    1    1    1    1    1
    1    1    1    1    1    1    1    1    1    1    1    1    1    1    1
    1    1    1    1    1    1    1    1    1    1    1    1    1    1    1
    1    1    1    1    1    1    1    1    1    1    1    1    1    1    1
    1    1    1    1    1    1    1    1    1    1    1    1    1    1    1
    1    1    1    1    1    1    1    1    1    1    1    1    1    1    1
    1    1    1    1    1    1    1    1    1    1    1    1    1    1    1
    1    1    1    1    1    1    1    1    1    1    1    1    1    1    1
    1    1    1    1    1    1    1    1    1    1    1    1    1    1    1
    1    1    1    1    1    1    1    1    1    1    1    1    1    1    1
    1    1    1    1    1    1    1    1    1    1    1    1    1    1    1
    1    1    1    1    1    1    1    1    1    1    1    1    1    1    1
    1    1    1    1    1    1    1    1    1    1    1    1    1    1    1
    1    1    1    1    1    1    1    1    1    1    1    1    1    1    1
    1    1    1    1    1    1    1    1    1    1    1    1    1    1    1
    1    1    1    1    1    1    1    1    1    1    1    1    1    1    1
    1    1    1    1    1    1    1    1    1    1    1    1    1    1    1
    1    1    1    1    1    1    1    1    1    1    1    1    1    1    1
    1    1    1    1    1    1    1    1    1    1    1    1    1    1    1
    1    1    1    1    1    1    1    1    1    1    1    1    1    1    1
    1    1    1    1    1    1    1    1    1    1    1    1    1    1    1
    1    1    1    1    1    1    1    1    1    1    1    1    1    1    1
    1    1    1    1    1    1    1    1    1    1    1    1    1    1    1
    1    1    1    1    1    1    1    1    1    1    1    1    1    1    1
    1    1    1    1    1    1    1    1    1    1    1    1    1    1    1
    1    1    1    1    1    1    1    1    1    1    1    1    1    1    1
    1    1    1    1    1    1    1    1    1    1    1    1    1    1    1
    1    1    1    1    1    1    1    1    1    1    2    1    1    1    1
    1    1    1    1    1    1    1    1    1    1    1    1    1    1    1
    1    1    1    1    1    1    1    1    1    1    1    1    1    1    2
    1    1    1    1    1    1    1    1    1    1    1    1    1    1    1
    1    1    1    1    1    1    1    1    1    1    1    1    1    1    1
    2    1    1    1    1    1    1    1    1    1    1    1    1    1    1
    1    1    1    1    1    1    1    1    1    1    1    1    1    2    1
    1    1    1    1    1    1    1    1    1    1    1    1    1    1    1
    1    1    1    1    1    1    1    1    2    1    1    1    1    1    1
    1    1    1    1    1    1    1    1    1    1    1    1    1    1    1
    2    1    1    1    1    1    1    1    1    1    1    1    1    1    1
    1    1    1    2    2    1    1    1    1    1    1    1    1    1    1
    1    1    1    1    2    1    1    1    1    1    1    1    1    1    1
    1    2    1    1    1    1    1    1    1    1    2    1    1    1    1
    1    2    1    1
  -23  -12    0    1    1    0.000003    0.000000
  -23  -12    0    2    1    0.000005    0.000000
  -23  -12    0    1    2   -0.000002    0.000000
  -23  -12    0    2    2    0.000003   -0.000000
  -23  -11    0    1    1    0.000003    0.000000
  -23  -11    0    2    1   -0.000001    0.000000
  -23  -11    0    1    2    0.000002   -0.000000
  -23  -11    0    2    2    0.000003   -0.000000
  -23  -10    0    1    1   -0.000001    0.000000
  -23  -10    0    2    1    0.000004    0.000000
  -23  -10    0    1    2   -0.000002   -0.000000
  -23  -10    0    2    2   -0.000001   -0.000000
  -22  -13    0    1    1    0.000001   -0.000000
  -22  -13    0    2    1    0.000004   -0.000000
  -22  -13    0    1    2   -0.000000    0.000000
  -22  -13    0    2    2    0.000001    0.000000
  -22  -12    0    1    1   -0.000005   -0.000000
  -22  -12    0    2    1   -0.000006   -0.000000
  -22  -12    0    1    2    0.000005    0.000000
  -22  -12    0    2    2   -0.000005    0.000000
  -22  -11    0    1    1    0.000002    0.000000
  -22  -11    0    2    1   -0.000006    0.000000
  -22  -11    0    1    2    0.000003   -0.000000
  -22  -11    0    2    2    0.000002    0.000000
  -22  -10    0    1    1   -0.000005    0.000000
  -22  -10    0    2    1    0.000004    0.000000
  -22  -10    0    1    2    0.000003   -0.000000
  -22  -10    0    2    2   -0.000005   -0.000000
  -22   -9    0    1    1    0.000001   -0.000000
  -22   -9    0    2    1   -0.000012   -0.000000
  -22   -9    0    1    2    0.000005   -0.000000
  -22   -9    0    2    2    0.000001   -0.000000
  -22   -8    0    1    1   -0.000002   -0.000000
  -22   -8    0    2    1    0.000005   -0.000000
  -22   -8    0    1    2   -0.000000    0.000000
  -22   -8    0    2    2   -0.000002    0.000000
  -21  -14    0    1    1    0.000003    0.000000
  -21  -14    0    2    1    0.000005   -0.000000
  -21  -14    0    1    2    0.000004   -0.000000
  -21  -14    0    2    2    0.000003   -0.000000
  -21  -13    0    1    1   -0.000002   -0.000000
  -21  -13    0    2    1    0.000002   -0.000000
  -21  -13    0    1    2   -0.000009   -0.000000
  -21  -13    0    2    2   -0.000002   -0.000000
  -21  -12    0    1    1    0.000003   -0.000000
  -21  -12    0    2    1    0.000004   -0.000000
  -21  -12    0    1    2   -0.000001   -0.000000
  -21  -12    0    2    2    0.000003    0.000000
  -21  -11    0    1    1    0.000001    0.000000
  -21  -11    0    2    1    0.000003    0.000000
  -21  -11    0    1    2   -0.000006   -0.000000
  -21  -11    0    2    2    0.000001   -0.000000
  -21  -10    0    1    1    0.000001   -0.000000
  -21  -10    0    2    1    0.000004    0.000000
  -21  -10    0    1    2   -0.000003   -0.000000
  -21  -10    0    2    2    0.000001    0.000000
  -21   -9    0    1    1    0.000003   -0.000000
  -21   -9    0    2    1    0.000002   -0.000000
  -21   -9    0    1    2   -0.000006   -0.000000
  -21   -9    0    2    2    0.000003    0.000000
  -21   -8    0    1    1   -0.000002   -0.000000
  -21   -8    0    2    1    0.000005   -0.000000
  -21   -8    0    1    2   -0.000001    0.000000
  -21   -8    0    2    2   -0.000002    0.000000
  -21   -7    0    1    1    0.000003    0.000000
  -21   -7    0    2    1   -0.000006   -0.000000
  -21   -7    0    1    2   -0.000009    0.000000
  -21   -7    0    2    2    0.000003   -0.000000
  -21   -6    0    1    1   -0.000002    0.000000
  -21   -6    0    2    1    0.000005    0.000000
  -21   -6    0    1    2    0.000004    0.000000
  -21   -6    0    2    2   -0.000002   -0.000000
  -20  -15    0    1    1    0.000001    0.000000
  -20  -15    0    2    1    0.000005    0.000000
  -20  -15    0    1    2    0.000000   -0.000000
  -20  -15    0    2    2    0.000001    0.000000
  -20  -14    0    1    1   -0.000002    0.000000
  -20  -14    0    2    1   -0.000005    0.000000
  -20  -14    0    1    2    0.000003   -0.000000
  -20  -14    0    2    2   -0.000002   -0.000000
  -20  -13    0    1    1    0.000002    0.000000
  -20  -13    0    2    1    0.000007    0.000000
  -20  -13    0    1    2   -0.000001   -0.000000
  -20  -13    0    2    2    0.000002   -0.000000
  -20  -12    0    1    1    0.000000    0.000000
  -20  -12    0    2    1   -0.000010    0.000000
  -20  -12    0    1    2    0.000011   -0.000000
  -20  -12    0    2    2    0.000000    0.000000
  -20  -11    0    1    1   -0.000001    0.000000
  -20  -11    0    2    1   -0.000002   -0.000000
  -20  -11    0    1    2    0.000002    0.000000
  -20  -11    0    2    2   -0.000001   -0.000000
  -20  -10    0    1    1   -0.000001   -0.000000
  -20  -10    0    2    1   -0.000002    0.000000
  -20  -10    0    1    2    0.000008    0.000000
  -20  -10    0    2    2   -0.000001    0.000000
  -20   -9    0    1    1   -0.000001   -0.000000
  -20   -9    0    2    1   -0.000010    0.000000
  -20   -9    0    1    2    0.000008   -0.000000
  -20   -9    0    2    2   -0.000001    0.000000
  -20   -8    0    1    1    0.000000   -0.000000
  -20   -8    0    2    1    0.000007   -0.000000
  -20   -8    0    1    2    0.000002   -0.000000
  -20   -8    0    2    2    0.000000    0.000000
  -20   -7    0    1    1    0.000002   -0.000000
  -20   -7    0    2    1   -0.000005   -0.000000
  -20   -7    0    1    2    0.000011   -0.000000
  -20   -7    0    2    2    0.000002    0.000000
  -20   -6    0    1    1   -0.000002    0.000000
  -20   -6    0    2    1    0.000005   -0.000000
  -20   -6    0    1    2   -0.000001    0.000000
  -20   -6    0    2    2   -0.000002   -0.000000
  -20   -5    0    1    1    0.000001    0.000000
  -20   -5    0    2    1    0.000012    0.000000
  -20   -5    0    1    2    0.000003    0.000000
  -20   -5    0    2    2    0.000001   -0.000000
  -20   -4    0    1    1   -0.000007   -0.000000
  -20   -4    0    2    1    0.000000   -0.000000
  -20   -4    0    1    2    0.000000    0.000000
  -20   -4    0    2    2   -0.000007    0.000000
  -19  -16    0    1    1    0.000003   -0.000000
  -19  -16    0    2    1    0.000000    0.000000
  -19  -16    0    1    2    0.000007   -0.000000
  -19  -16    0    2    2    0.000003   -0.000000
  -19  -15    0    1    1    0.000000    0.000000
  -19  -15    0    2    1   -0.000019    0.000000
  -19  -15    0    1    2    0.000007   -0.000000
  -19  -15    0    2    2    0.000000   -0.000000
  -19  -14    0    1    1    0.000002    0.000000
  -19  -14    0    2    1    0.000000    0.000000
  -19  -14    0    1    2    0.000008   -0.000000
  -19  -14    0    2    2    0.000002   -0.000000
  -19  -13    0    1    1   -0.000001    0.000000
  -19  -13    0    2    1   -0.000001    0.000000
  -19  -13    0    1    2   -0.000005   -0.000000
  -19  -13    0    2    2   -0.000001   -0.000000
  -19  -12    0    1    1    0.000003    0.000000
  -19  -12    0    2    1   -0.000002    0.000000
  -19  -12    0    1    2    0.000001    0.000000
  -19  -12    0    2    2    0.000003   -0.000000
  -19  -11    0    1    1   -0.000001    0.000000
  -19  -11    0    2    1    0.000012   -0.000000
  -19  -11    0    1    2   -0.000011    0.000000
  -19  -11    0    2    2   -0.000001   -0.000000
  -19  -10    0    1    1    0.000002    0.000000
  -19  -10    0    2    1   -0.000004   -0.000000
  -19  -10    0    1    2   -0.000009    0.000000
  -19  -10    0    2    2    0.000002   -0.000000
  -19   -9    0    1    1    0.000002    0.000000
  -19   -9    0    2    1    0.000012    0.000000
  -19   -9    0    1    2   -0.000012    0.000000
  -19   -9    0    2    2    0.000002   -0.000000
  -19   -8    0    1    1   -0.000001   -0.000000
  -19   -8    0    2    1   -0.000002    0.000000
  -19   -8    0    1    2   -0.000009    0.000000
  -19   -8    0    2    2   -0.000001   -0.000000
  -19   -7    0    1    1    0.000003   -0.000000
  -19   -7    0    2    1   -0.000001   -0.000000
  -19   -7    0    1    2   -0.000011   -0.000000
  -19   -7    0    2    2    0.000003    0.000000
  -19   -6    0    1    1   -0.000001   -0.000000
  -19   -6    0    2    1    0.000000   -0.000000
  -19   -6    0    1    2    0.000001    0.000000
  -19   -6    0    2    2   -0.000001    0.000000
  -19   -5    0    1    1    0.000002    0.000000
  -19   -5    0    2    1   -0.000019   -0.000000
  -19   -5    0    1    2   -0.000005    0.000000
  -19   -5    0    2    2    0.000002   -0.000000
  -19   -4    0    1    1    0.000000    0.000000
  -19   -4    0    2    1    0.000000   -0.000000
  -19   -4    0    1    2    0.000008    0.000000
  -19   -4    0    2    2    0.000000   -0.000000
  -19   -3    0    1    1    0.000003   -0.000000
  -19   -3    0    2    1   -0.000004   -0.000000
  -19   -3    0    1    2    0.000007    0.000000
  -19   -3    0    2    2    0.000003    0.000000
  -19   -2    0    1    1   -0.000001   -0.000000
  -19   -2    0    2    1    0.000000    0.000000
  -19   -2    0    1    2    0.000007    0.000000
  -19   -2    0    2    2   -0.000001    0.000000
  -18  -18    0    1    1   -0.000001   -0.000000
  -18  -18    0    2    1    0.000002   -0.000000
  -18  -18    0    1    2    0.000002    0.000000
  -18  -18    0    2    2   -0.000001   -0.000000
  -18  -17    0    1    1    0.000002   -0.000000
  -18  -17    0    2    1    0.000000    0.000000
  -18  -17    0    1    2    0.000001   -0.000000
  -18  -17    0    2    2    0.000002   -0.000000
  -18  -16    0    1    1   -0.000002   -0.000000
  -18  -16    0    2    1    0.000002    0.000000
  -18  -16    0    1    2    0.000003   -0.000000
  -18  -16    0    2    2   -0.000002    0.000000
  -18  -15    0    1    1    0.000001   -0.000000
  -18  -15    0    2    1    0.000006    0.000000
  -18  -15    0    1    2   -0.000005   -0.000000
  -18  -15    0    2    2    0.000001    0.000000
  -18  -14    0    1    1   -0.000001    0.000000
  -18  -14    0    2    1    0.000012    0.000000
  -18  -14    0    1    2   -0.000013    0.000000
  -18  -14    0    2    2   -0.000001   -0.000000
  -18  -13    0    1    1    0.000000    0.000000
  -18  -13    0    2    1    0.000007   -0.000000
  -18  -13    0    1    2   -0.000011   -0.000000
  -18  -13    0    2    2    0.000000    0.000000
  -18  -12    0    1    1   -0.000001   -0.000000
  -18  -12    0    2    1   -0.000005   -0.000000
  -18  -12    0    1    2    0.000009    0.000000
  -18  -12    0    2    2   -0.000001    0.000000
  -18  -11    0    1    1   -0.000004    0.000000
  -18  -11    0    2    1    0.000004   -0.000000
  -18  -11    0    1    2   -0.000005    0.000000
  -18  -11    0    2    2   -0.000004   -0.000000
  -18  -10    0    1    1   -0.000001    0.000000
  -18  -10    0    2    1   -0.000004   -0.000000
  -18  -10    0    1    2    0.000016    0.000000
  -18  -10    0    2    2   -0.000001   -0.000000
  -18   -9    0    1    1   -0.000004    0.000000
  -18   -9    0    2    1   -0.000004   -0.000000
  -18   -9    0    1    2    0.000011    0.000000
  -18   -9    0    2    2   -0.000004   -0.000000
  -18   -8    0    1    1   -0.000001    0.000000
  -18   -8    0    2    1    0.000004   -0.000000
  -18   -8    0    1    2    0.000011    0.000000
  -18   -8    0    2    2   -0.000001   -0.000000
  -18   -7    0    1    1   -0.000004   -0.000000
  -18   -7    0    2    1   -0.000005   -0.000000
  -18   -7    0    1    2    0.000016    0.000000
  -18   -7    0    2    2   -0.000004    0.000000
  -18   -6    0    1    1   -0.000001    0.000000
  -18   -6    0    2    1    0.000007   -0.000000
  -18   -6    0    1    2   -0.000005    0.000000
  -18   -6    0    2    2   -0.000001   -0.000000
  -18   -5    0    1    1    0.000000    0.000000
  -18   -5    0    2    1    0.000012    0.000000
  -18   -5    0    1    2    0.000009    0.000000
  -18   -5    0    2    2    0.000000    0.000000
  -18   -4    0    1    1   -0.000001   -0.000000
  -18   -4    0    2    1    0.000006   -0.000000
  -18   -4    0    1    2   -0.000011   -0.000000
  -18   -4    0    2    2   -0.000001   -0.000000
  -18   -3    0    1    1    0.000001    0.000000
  -18   -3    0    2    1    0.000002    0.000000
  -18   -3    0    1    2   -0.000013   -0.000000
  -18   -3    0    2    2    0.000001    0.000000
  -18   -2    0    1    1   -0.000002    0.000000
  -18   -2    0    2    1    0.000000    0.000000
  -18   -2    0    1    2   -0.000005   -0.000000
  -18   -2    0    2    2   -0.000002   -0.000000
  -18   -1    0    1    1    0.000002    0.000000
  -18   -1    0    2    1    0.000002    0.000000
  -18   -1    0    1    2    0.000003   -0.000000
  -18   -1    0    2    2    0.000002   -0.000000
  -18    0    0    1    1   -0.000001    0.000000
  -18    0    0    2    1    0.000001   -0.000000
  -18    0    0    1    2    0.000001    0.000000
  -18    0    0    2    2   -0.000001    0.000000
  -17  -19    0    1    1   -0.000001   -0.000000
  -17  -19    0    2    1   -0.000006   -0.000000
  -17  -19    0    1    2   -0.000004   -0.000000
  -17  -19    0    2    2   -0.000001    0.000000
  -17  -18    0    1    1    0.000002   -0.000000
  -17  -18    0    2    1    0.000001   -0.000000
  -17  -18    0    1    2    0.000000    0.000000
  -17  -18    0    2    2    0.000002    0.000000
  -17  -17    0    1    1   -0.000001    0.000000
  -17  -17    0    2    1   -0.000002    0.000000
  -17  -17    0    1    2   -0.000002   -0.000000
  -17  -17    0    2    2   -0.000001   -0.000000
  -17  -16    0    1    1    0.000000   -0.000000
  -17  -16    0    2    1   -0.000002    0.000000
  -17  -16    0    1    2    0.000003   -0.000000
  -17  -16    0    2    2    0.000000    0.000000
  -17  -15    0    1    1   -0.000001   -0.000000
  -17  -15    0    2    1    0.000001   -0.000000
  -17  -15    0    1    2   -0.000004   -0.000000
  -17  -15    0    2    2   -0.000001    0.000000
  -17  -14    0    1    1    0.000001   -0.000000
  -17  -14    0    2    1   -0.000000    0.000000
  -17  -14    0    1    2    0.000007   -0.000000
  -17  -14    0    2    2    0.000001    0.000000
  -17  -13    0    1    1    0.000001    0.000000
  -17  -13    0    2    1   -0.000014    0.000000
  -17  -13    0    1    2    0.000018   -0.000000
  -17  -13    0    2    2    0.000001   -0.000000
  -17  -12    0    1    1   -0.000002    0.000000
  -17  -12    0    2    1   -0.000008   -0.000000
  -17  -12    0    1    2    0.000005    0.000000
  -17  -12    0    2    2   -0.000002   -0.000000
  -17  -11    0    1    1    0.000003    0.000000
  -17  -11    0    2    1    0.000004   -0.000000
  -17  -11    0    1    2    0.000000    0.000000
  -17  -11    0    2    2    0.000003   -0.000000
  -17  -10    0    1    1    0.000002    0.000000
  -17  -10    0    2    1   -0.000015   -0.000000
  -17  -10    0    1    2   -0.000007    0.000000
  -17  -10    0    2    2    0.000002   -0.000000
  -17   -9    0    1    1    0.000004    0.000000
  -17   -9    0    2    1    0.000012   -0.000000
  -17   -9    0    1    2   -0.000010    0.000000
  -17   -9    0    2    2    0.000004   -0.000000
  -17   -8    0    1    1    0.000004   -0.000000
  -17   -8    0    2    1   -0.000015   -0.000000
  -17   -8    0    1    2   -0.000010    0.000000
  -17   -8    0    2    2    0.000004    0.000000
  -17   -7    0    1    1    0.000002   -0.000000
  -17   -7    0    2    1    0.000004   -0.000000
  -17   -7    0    1    2   -0.000010   -0.000000
  -17   -7    0    2    2    0.000002    0.000000
  -17   -6    0    1    1    0.000003   -0.000000
  -17   -6    0    2    1   -0.000008   -0.000000
  -17   -6    0    1    2   -0.000007    0.000000
  -17   -6    0    2    2    0.000003    0.000000
  -17   -5    0    1    1   -0.000002    0.000000
  -17   -5    0    2    1   -0.000014    0.000000
  -17   -5    0    1    2    0.000000    0.000000
  -17   -5    0    2    2   -0.000002   -0.000000
  -17   -4    0    1    1    0.000001    0.000000
  -17   -4    0    2    1   -0.000000    0.000000
  -17   -4    0    1    2    0.000005   -0.000000
  -17   -4    0    2    2    0.000001   -0.000000
  -17   -3    0    1    1    0.000001    0.000000
  -17   -3    0    2    1    0.000001    0.000000
  -17   -3    0    1    2    0.000018   -0.000000
  -17   -3    0    2    2    0.000001   -0.000000
  -17   -2    0    1    1   -0.000001    0.000000
  -17   -2    0    2    1   -0.000002    0.000000
  -17   -2    0    1    2    0.000007   -0.000000
  -17   -2    0    2    2   -0.000001   -0.000000
  -17   -1    0    1    1    0.000000    0.000000
  -17   -1    0    2    1   -0.000002    0.000000
  -17   -1    0    1    2   -0.000004   -0.000000
  -17   -1    0    2    2    0.000000   -0.000000
  -17    0    0    1    1   -0.000001   -0.000000
  -17    0    0    2    1    0.000001   -0.000000
  -17    0    0    1    2    0.000002   -0.000000
  -17    0    0    2    2   -0.000001    0.000000
  -17    1    0    1    1    0.000002   -0.000000
  -17    1    0    2    1   -0.000006    0.000000
  -17    1    0    1    2   -0.000002   -0.000000
  -17    1    0    2    2    0.000002    0.000000
  -17    2    0    1    1   -0.000001    0.000000
  -17    2    0    2    1    0.000007   -0.000000
  -17    2    0    1    2    0.000000   -0.000000
  -17    2    0    2    2   -0.000001   -0.000000
  -16  -20    0    1    1   -0.000007    0.000000
  -16  -20    0    2    1   -0.000013   -0.000000
  -16  -20    0    1    2    0.000012   -0.000000
  -16  -20    0    2    2   -0.000007   -0.000000
  -16  -19    0    1    1    0.000003    0.000000
  -16  -19    0    2    1    0.000007   -0.000000
  -16  -19    0    1    2    0.000000   -0.000000
  -16  -19    0    2    2    0.000003   -0.000000
  -16  -18    0    1    1   -0.000002    0.000000
  -16  -18    0    2    1    0.000003   -0.000000
  -16  -18    0    1    2    0.000002    0.000000
  -16  -18    0    2    2   -0.000002    0.000000
  -16  -17    0    1    1    0.000000   -0.000000
  -16  -17    0    2    1    0.000003    0.000000
  -16  -17    0    1    2   -0.000002    0.000000
  -16  -17    0    2    2    0.000000    0.000000
  -16  -16    0    1    1   -0.000003   -0.000000
  -16  -16    0    2    1   -0.000002   -0.000000
  -16  -16    0    1    2   -0.000002   -0.000000
  -16  -16    0    2    2   -0.000003    0.000000
  -16  -15    0    1    1    0.000000    0.000000
  -16  -15    0    2    1    0.000007    0.000000
  -16  -15    0    1    2   -0.000003    0.000000
  -16  -15    0    2    2    0.000000   -0.000000
  -16  -14    0    1    1    0.000002   -0.000000
  -16  -14    0    2    1   -0.000009    0.000000
  -16  -14    0    1    2    0.000003   -0.000000
  -16  -14    0    2    2    0.000002    0.000000
  -16  -13    0    1    1   -0.000001    0.000000
  -16  -13    0    2    1    0.000005   -0.000000
  -16  -13    0    1    2   -0.000013   -0.000000
  -16  -13    0    2    2   -0.000001   -0.000000
  -16  -12    0    1    1    0.000002    0.000000
  -16  -12    0    2    1    0.000006   -0.000000
  -16  -12    0    1    2   -0.000008    0.000000
  -16  -12    0    2    2    0.000002   -0.000000
  -16  -11    0    1    1   -0.000003   -0.000000
  -16  -11    0    2    1    0.000010   -0.000000
  -16  -11    0    1    2   -0.000017   -0.000000
  -16  -11    0    2    2   -0.000003   -0.000000
  -16  -10    0    1    1    0.000000    0.000000
  -16  -10    0    2    1    0.000004    0.000000
  -16  -10    0    1    2    0.000012   -0.000000
  -16  -10    0    2    2    0.000000   -0.000000
  -16   -9    0    1    1   -0.000004    0.000000
  -16   -9    0    2    1    0.000005    0.000000
  -16   -9    0    1    2   -0.000000   -0.000000
  -16   -9    0    2    2   -0.000004   -0.000000
  -16   -8    0    1    1   -0.000003   -0.000000
  -16   -8    0    2    1    0.000005    0.000000
  -16   -8    0    1    2    0.000015    0.000000
  -16   -8    0    2    2   -0.000003    0.000000
  -16   -7    0    1    1   -0.000004   -0.000000
  -16   -7    0    2    1    0.000004   -0.000000
  -16   -7    0    1    2    0.000015    0.000000
  -16   -7    0    2    2   -0.000004   -0.000000
  -16   -6    0    1    1    0.000000   -0.000000
  -16   -6    0    2    1    0.000010   -0.000000
  -16   -6    0    1    2   -0.000000   -0.000000
  -16   -6    0    2    2    0.000000   -0.000000
  -16   -5    0    1    1   -0.000003   -0.000000
  -16   -5    0    2    1    0.000006    0.000000
  -16   -5    0    1    2    0.000012   -0.000000
  -16   -5    0    2    2   -0.000003    0.000000
  -16   -4    0    1    1    0.000002    0.000000
  -16   -4    0    2    1    0.000005    0.000000
  -16   -4    0    1    2   -0.000017   -0.000000
  -16   -4    0    2    2    0.000002   -0.000000
  -16   -3    0    1    1   -0.000001    0.000000
  -16   -3    0    2    1   -0.000009    0.000000
  -16   -3    0    1    2   -0.000008   -0.000000
  -16   -3    0    2    2   -0.000001   -0.000000
  -16   -2    0    1    1    0.000002    0.000000
  -16   -2    0    2    1    0.000007    0.000000
  -16   -2    0    1    2   -0.000013   -0.000000
  -16   -2    0    2    2    0.000002   -0.000000
  -16   -1    0    1    1    0.000000   -0.000000
  -16   -1    0    2    1   -0.000002    0.000000
  -16   -1    0    1    2    0.000003   -0.000000
  -16   -1    0    2    2    0.000000    0.000000
  -16    0    0    1    1   -0.000003    0.000000
  -16    0    0    2    1    0.000002    0.000000
  -16    0    0    1    2   -0.000004   -0.000000
  -16    0    0    2    2   -0.000003   -0.000000
  -16    1    0    1    1    0.000000    0.000000
  -16    1    0    2    1    0.000003    0.000000
  -16    1    0    1    2   -0.000002   -0.000000
  -16    1    0    2    2    0.000000   -0.000000
  -16    2    0    1    1   -0.000002    0.000000
  -16    2    0    2    1    0.000007   -0.000000
  -16    2    0    1    2   -0.000002   -0.000000
  -16    2    0    2    2   -0.000002   -0.000000
  -16    3    0    1    1    0.000003   -0.000000
  -16    3    0    2    1   -0.000013   -0.000000
  -16    3    0    1    2    0.000002    0.000000
  -16    3    0    2    2    0.000003    0.000000
  -16    4    0    1    1   -0.000007    0.000000
  -16    4    0    2    1    0.000000   -0.000000
  -16    4    0    1    2    0.000000    0.000000
  -16    4    0    2    2   -0.000007   -0.000000
  -15  -21    0    1    1   -0.000002    0.000000
  -15  -21    0    2    1   -0.000009    0.000000
  -15  -21    0    1    2   -0.000006   -0.000000
  -15  -21    0    2    2   -0.000002    0.000000
  -15  -20    0    1    1    0.000001    0.000000
  -15  -20    0    2    1    0.000000    0.000000
  -15  -20    0    1    2    0.000005   -0.000000
  -15  -20    0    2    2    0.000001   -0.000000
  -15  -19    0    1    1    0.000000   -0.000000
  -15  -19    0    2    1    0.000007    0.000000
  -15  -19    0    1    2   -0.000019   -0.000000
  -15  -19    0    2    2    0.000000    0.000000
  -15  -18    0    1    1    0.000001    0.000000
  -15  -18    0    2    1   -0.000005   -0.000000
  -15  -18    0    1    2    0.000006   -0.000000
  -15  -18    0    2    2    0.000001   -0.000000
  -15  -17    0    1    1   -0.000001    0.000000
  -15  -17    0    2    1   -0.000004    0.000000
  -15  -17    0    1    2    0.000001    0.000000
  -15  -17    0    2    2   -0.000001   -0.000000
  -15  -16    0    1    1    0.000000    0.000000
  -15  -16    0    2    1   -0.000003    0.000000
  -15  -16    0    1    2    0.000007   -0.000000
  -15  -16    0    2    2    0.000000   -0.000000
  -15  -15    0    1    1   -0.000000   -0.000000
  -15  -15    0    2    1   -0.000000   -0.000000
  -15  -15    0    1    2   -0.000000   -0.000000
  -15  -15    0    2    2   -0.000000    0.000000
  -15  -14    0    1    1   -0.000001   -0.000000
  -15  -14    0    2    1    0.000001   -0.000000
  -15  -14    0    1    2    0.000002    0.000000
  -15  -14    0    2    2   -0.000001    0.000000
  -15  -13    0    1    1   -0.000003   -0.000000
  -15  -13    0    2    1    0.000003    0.000000
  -15  -13    0    1    2    0.000001    0.000000
  -15  -13    0    2    2   -0.000003    0.000000
  -15  -12    0    1    1   -0.000002    0.000000
  -15  -12    0    2    1    0.000002    0.000000
  -15  -12    0    1    2    0.000003   -0.000000
  -15  -12    0    2    2   -0.000002   -0.000000
  -15  -11    0    1    1    0.000003    0.000000
  -15  -11    0    2    1   -0.000010    0.000000
  -15  -11    0    1    2    0.000026   -0.000000
  -15  -11    0    2    2    0.000003   -0.000000
  -15  -10    0    1    1    0.000001   -0.000000
  -15  -10    0    2    1   -0.000011   -0.000000
  -15  -10    0    1    2   -0.000002   -0.000000
  -15  -10    0    2    2    0.000001   -0.000000
  -15   -9    0    1    1    0.000008   -0.000000
  -15   -9    0    2    1   -0.000000   -0.000000
  -15   -9    0    1    2    0.000003    0.000000
  -15   -9    0    2    2    0.000008    0.000000
  -15   -8    0    1    1    0.000003   -0.000000
  -15   -8    0    2    1   -0.000020   -0.000000
  -15   -8    0    1    2   -0.000010    0.000000
  -15   -8    0    2    2    0.000003    0.000000
  -15   -7    0    1    1    0.000003   -0.000000
  -15   -7    0    2    1   -0.000000    0.000000
  -15   -7    0    1    2   -0.000013    0.000000
  -15   -7    0    2    2    0.000003    0.000000
  -15   -6    0    1    1    0.000008    0.000000
  -15   -6    0    2    1   -0.000011    0.000000
  -15   -6    0    1    2   -0.000010   -0.000000
  -15   -6    0    2    2    0.000008   -0.000000
  -15   -5    0    1    1    0.000001    0.000000
  -15   -5    0    2    1   -0.000010    0.000000
  -15   -5    0    1    2    0.000003   -0.000000
  -15   -5    0    2    2    0.000001   -0.000000
  -15   -4    0    1    1    0.000003    0.000000
  -15   -4    0    2    1    0.000002    0.000000
  -15   -4    0    1    2   -0.000002   -0.000000
  -15   -4    0    2    2    0.000003   -0.000000
  -15   -3    0    1    1   -0.000002    0.000000
  -15   -3    0    2    1    0.000003    0.000000
  -15   -3    0    1    2    0.000026   -0.000000
  -15   -3    0    2    2   -0.000002   -0.000000
  -15   -2    0    1    1   -0.000003    0.000000
  -15   -2    0    2    1    0.000001    0.000000
  -15   -2    0    1    2    0.000003   -0.000000
  -15   -2    0    2    2   -0.000003   -0.000000
  -15   -1    0    1    1   -0.000000   -0.000000
  -15   -1    0    2    1   -0.000000    0.000000
  -15   -1    0    1    2    0.000001   -0.000000
  -15   -1    0    2    2   -0.000000    0.000000
  -15    0    0    1    1   -0.000000    0.000000
  -15    0    0    2    1   -0.000004    0.000000
  -15    0    0    1    2    0.000002   -0.000000
  -15    0    0    2    2   -0.000000   -0.000000
  -15    1    0    1    1    0.000000    0.000000
  -15    1    0    2    1   -0.000004    0.000000
  -15    1    0    1    2   -0.000000   -0.000000
  -15    1    0    2    2    0.000000   -0.000000
  -15    2    0    1    1   -0.000001   -0.000000
  -15    2    0    2    1   -0.000005    0.000000
  -15    2    0    1    2    0.000007   -0.000000
  -15    2    0    2    2   -0.000001    0.000000
  -15    3    0    1    1    0.000001   -0.000000
  -15    3    0    2    1    0.000007    0.000000
  -15    3    0    1    2    0.000001    0.000000
  -15    3    0    2    2    0.000001    0.000000
  -15    4    0    1    1    0.000000   -0.000000
  -15    4    0    2    1    0.000000    0.000000
  -15    4    0    1    2    0.000006   -0.000000
  -15    4    0    2    2    0.000000   -0.000000
  -15    5    0    1    1    0.000001    0.000000
  -15    5    0    2    1   -0.000009    0.000000
  -15    5    0    1    2   -0.000019   -0.000000
  -15    5    0    2    2    0.000001   -0.000000
  -15    6    0    1    1   -0.000002   -0.000000
  -15    6    0    2    1    0.000004   -0.000000
  -15    6    0    1    2    0.000005   -0.000000
  -15    6    0    2    2   -0.000002    0.000000
  -14  -22    0    1    1   -0.000002   -0.000000
  -14  -22    0    2    1    0.000007   -0.000000
  -14  -22    0    1    2   -0.000012    0.000000
  -14  -22    0    2    2   -0.000002    0.000000
  -14  -21    0    1    1    0.000003   -0.000000
  -14  -21    0    2    1    0.000004    0.000000
  -14  -21    0    1    2    0.000005    0.000000
  -14  -21    0    2    2    0.000003    0.000000
  -14  -20    0    1    1   -0.000002    0.000000
  -14  -20    0    2    1    0.000003    0.000000
  -14  -20    0    1    2   -0.000005    0.000000
  -14  -20    0    2    2   -0.000002   -0.000000
  -14  -19    0    1    1    0.000002   -0.000000
  -14  -19    0    2    1    0.000008    0.000000
  -14  -19    0    1    2    0.000000   -0.000000
  -14  -19    0    2    2    0.000002    0.000000
  -14  -18    0    1    1   -0.000001   -0.000000
  -14  -18    0    2    1   -0.000013   -0.000000
  -14  -18    0    1    2    0.000012    0.000000
  -14  -18    0    2    2   -0.000001    0.000000
  -14  -17    0    1    1    0.000001   -0.000000
  -14  -17    0    2    1    0.000007   -0.000000
  -14  -17    0    1    2   -0.000000    0.000000
  -14  -17    0    2    2    0.000001    0.000000
  -14  -16    0    1    1    0.000002   -0.000000
  -14  -16    0    2    1    0.000003    0.000000
  -14  -16    0    1    2   -0.000009   -0.000000
  -14  -16    0    2    2    0.000002    0.000000
  -14  -15    0    1    1   -0.000001   -0.000000
  -14  -15    0    2    1    0.000002    0.000000
  -14  -15    0    1    2    0.000001   -0.000000
  -14  -15    0    2    2   -0.000001    0.000000
  -14  -14    0    1    1    0.000000   -0.000000
  -14  -14    0    2    1   -0.000008   -0.000000
  -14  -14    0    1    2   -0.000008   -0.000000
  -14  -14    0    2    2    0.000000    0.000000
  -14  -13    0    1    1    0.000005   -0.000000
  -14  -13    0    2    1    0.000004    0.000000
  -14  -13    0    1    2    0.000008   -0.000000
  -14  -13    0    2    2    0.000005    0.000000
  -14  -12    0    1    1    0.000003    0.000000
  -14  -12    0    2    1   -0.000018    0.000000
  -14  -12    0    1    2    0.000005   -0.000000
  -14  -12    0    2    2    0.000003   -0.000000
  -14  -11    0    1    1   -0.000002   -0.000000
  -14  -11    0    2    1    0.000007    0.000000
  -14  -11    0    1    2   -0.000014   -0.000000
  -14  -11    0    2    2   -0.000002    0.000000
  -14  -10    0    1    1    0.000003   -0.000000
  -14  -10    0    2    1    0.000015    0.000000
  -14  -10    0    1    2   -0.000014   -0.000000
  -14  -10    0    2    2    0.000003    0.000000
  -14   -9    0    1    1   -0.000003   -0.000000
  -14   -9    0    2    1    0.000014   -0.000000
  -14   -9    0    1    2   -0.000014   -0.000000
  -14   -9    0    2    2   -0.000003    0.000000
  -14   -8    0    1    1   -0.000009    0.000000
  -14   -8    0    2    1    0.000014   -0.000000
  -14   -8    0    1    2    0.000001    0.000000
  -14   -8    0    2    2   -0.000009   -0.000000
  -14   -7    0    1    1   -0.000008   -0.000000
  -14   -7    0    2    1    0.000014    0.000000
  -14   -7    0    1    2   -0.000004   -0.000000
  -14   -7    0    2    2   -0.000008    0.000000
  -14   -6    0    1    1   -0.000009   -0.000000
  -14   -6    0    2    1    0.000014    0.000000
  -14   -6    0    1    2   -0.000004   -0.000000
  -14   -6    0    2    2   -0.000009    0.000000
  -14   -5    0    1    1   -0.000003    0.000000
  -14   -5    0    2    1    0.000015    0.000000
  -14   -5    0    1    2    0.000001    0.000000
  -14   -5    0    2    2   -0.000003    0.000000
  -14   -4    0    1    1    0.000003    0.000000
  -14   -4    0    2    1    0.000007    0.000000
  -14   -4    0    1    2   -0.000014    0.000000
  -14   -4    0    2    2    0.000003   -0.000000
  -14   -3    0    1    1   -0.000002   -0.000000
  -14   -3    0    2    1   -0.000018    0.000000
  -14   -3    0    1    2   -0.000014    0.000000
  -14   -3    0    2    2   -0.000002    0.000000
  -14   -2    0    1    1    0.000003   -0.000000
  -14   -2    0    2    1    0.000004    0.000000
  -14   -2    0    1    2   -0.000014   -0.000000
  -14   -2    0    2    2    0.000003   -0.000000
  -14   -1    0    1    1    0.000005   -0.000000
  -14   -1    0    2    1   -0.000008    0.000000
  -14   -1    0    1    2    0.000005    0.000000
  -14   -1    0    2    2    0.000005   -0.000000
  -14    0    0    1    1    0.000000   -0.000000
  -14    0    0    2    1    0.000002    0.000000
  -14    0    0    1    2    0.000008   -0.000000
  -14    0    0    2    2    0.000000    0.000000
  -14    1    0    1    1   -0.000000    0.000000
  -14    1    0    2    1    0.000003    0.000000
  -14    1    0    1    2   -0.000008   -0.000000
  -14    1    0    2    2   -0.000000   -0.000000
  -14    2    0    1    1    0.000002    0.000000
  -14    2    0    2    1    0.000007   -0.000000
  -14    2    0    1    2    0.000001    0.000000
  -14    2    0    2    2    0.000002   -0.000000
  -14    3    0    1    1    0.000001   -0.000000
  -14    3    0    2    1   -0.000013   -0.000000
  -14    3    0    1    2   -0.000009    0.000000
  -14    3    0    2    2    0.000001   -0.000000
  -14    4    0    1    1   -0.000001    0.000000
  -14    4    0    2    1    0.000008   -0.000000
  -14    4    0    1    2   -0.000000    0.000000
  -14    4    0    2    2   -0.000001   -0.000000
  -14    5    0    1    1    0.000002    0.000000
  -14    5    0    2    1    0.000003    0.000000
  -14    5    0    1    2    0.000012   -0.000000
  -14    5    0    2    2    0.000002   -0.000000
  -14    6    0    1    1   -0.000002    0.000000
  -14    6    0    2    1    0.000004    0.000000
  -14    6    0    1    2    0.000000    0.000000
  -14    6    0    2    2   -0.000002    0.000000
  -14    7    0    1    1    0.000003   -0.000000
  -14    7    0    2    1    0.000007   -0.000000
  -14    7    0    1    2   -0.000005   -0.000000
  -14    7    0    2    2    0.000003   -0.000000
  -14    8    0    1    1   -0.000002    0.000000
  -14    8    0    2    1   -0.000000   -0.000000
  -14    8    0    1    2    0.000005    0.000000
  -14    8    0    2    2   -0.000002   -0.000000
  -13  -23    0    1    1   -0.000001   -0.000000
  -13  -23    0    2    1   -0.000004   -0.000000
  -13  -23    0    1    2   -0.000001    0.000000
  -13  -23    0    2    2   -0.000001    0.000000
  -13  -22    0    1    1    0.000001    0.000000
  -13  -22    0    2    1   -0.000000   -0.000000
  -13  -22    0    1    2    0.000004   -0.000000
  -13  -22    0    2    2    0.000001   -0.000000
  -13  -21    0    1    1   -0.000002   -0.000000
  -13  -21    0    2    1   -0.000009   -0.000000
  -13  -21    0    1    2    0.000002    0.000000
  -13  -21    0    2    2   -0.000002    0.000000
  -13  -20    0    1    1    0.000002    0.000000
  -13  -20    0    2    1   -0.000001   -0.000000
  -13  -20    0    1    2    0.000007    0.000000
  -13  -20    0    2    2    0.000002   -0.000000
  -13  -19    0    1    1   -0.000001    0.000000
  -13  -19    0    2    1   -0.000005    0.000000
  -13  -19    0    1    2   -0.000001    0.000000
  -13  -19    0    2    2   -0.000001   -0.000000
  -13  -18    0    1    1    0.000000   -0.000000
  -13  -18    0    2    1   -0.000011   -0.000000
  -13  -18    0    1    2    0.000007   -0.000000
  -13  -18    0    2    2    0.000000    0.000000
  -13  -17    0    1    1    0.000001   -0.000000
  -13  -17    0    2    1    0.000018   -0.000000
  -13  -17    0    1    2   -0.000014   -0.000000
  -13  -17    0    2    2    0.000001    0.000000
  -13  -16    0    1    1   -0.000001   -0.000000
  -13  -16    0    2    1   -0.000013    0.000000
  -13  -16    0    1    2    0.000005   -0.000000
  -13  -16    0    2    2   -0.000001    0.000000
  -13  -15    0    1    1   -0.000003   -0.000000
  -13  -15    0    2    1    0.000001   -0.000000
  -13  -15    0    1    2    0.000003   -0.000000
  -13  -15    0    2    2   -0.000003    0.000000
  -13  -14    0    1    1    0.000005    0.000000
  -13  -14    0    2    1    0.000008    0.000000
  -13  -14    0    1    2    0.000004   -0.000000
  -13  -14    0    2    2    0.000005   -0.000000
  -13  -13    0    1    1    0.000000   -0.000000
  -13  -13    0    2    1   -0.000002   -0.000000
  -13  -13    0    1    2   -0.000002   -0.000000
  -13  -13    0    2    2    0.000000    0.000000
  -13  -12    0    1    1   -0.000003   -0.000000
  -13  -12    0    2    1    0.000016   -0.000000
  -13  -12    0    1    2   -0.000007    0.000000
  -13  -12    0    2    2   -0.000003    0.000000
  -13  -11    0    1    1   -0.000007   -0.000000
  -13  -11    0    2    1    0.000001   -0.000000
  -13  -11    0    1    2   -0.000008    0.000000
  -13  -11    0    2    2   -0.000007    0.000000
  -13  -10    0    1    1   -0.000004   -0.000000
  -13  -10    0    2    1    0.000005   -0.000000
  -13  -10    0    1    2   -0.000002    0.000000
  -13  -10    0    2    2   -0.000004    0.000000
  -13   -9    0    1    1    0.000003   -0.000000
  -13   -9    0    2    1   -0.000022   -0.000000
  -13   -9    0    1    2    0.000030    0.000000
  -13   -9    0    2    2    0.000003    0.000000
  -13   -8    0    1    1    0.000002   -0.000000
  -13   -8    0    2    1   -0.000020   -0.000000
  -13   -8    0    1    2    0.000016    0.000000
  -13   -8    0    2    2    0.000002    0.000000
  -13   -7    0    1    1    0.000001   -0.000000
  -13   -7    0    2    1   -0.000022    0.000000
  -13   -7    0    1    2    0.000015    0.000000
  -13   -7    0    2    2    0.000001    0.000000
  -13   -6    0    1    1    0.000001   -0.000000
  -13   -6    0    2    1   -0.000020    0.000000
  -13   -6    0    1    2    0.000015   -0.000000
  -13   -6    0    2    2    0.000001    0.000000
  -13   -5    0    1    1    0.000002   -0.000000
  -13   -5    0    2    1   -0.000022   -0.000000
  -13   -5    0    1    2    0.000015   -0.000000
  -13   -5    0    2    2    0.000002    0.000000
  -13   -4    0    1    1    0.000003   -0.000000
  -13   -4    0    2    1    0.000005    0.000000
  -13   -4    0    1    2    0.000016    0.000000
  -13   -4    0    2    2    0.000003    0.000000
  -13   -3    0    1    1   -0.000004   -0.000000
  -13   -3    0    2    1    0.000001    0.000000
  -13   -3    0    1    2    0.000030    0.000000
  -13   -3    0    2    2   -0.000004    0.000000
  -13   -2    0    1    1   -0.000007   -0.000000
  -13   -2    0    2    1    0.000016   -0.000000
  -13   -2    0    1    2   -0.000002    0.000000
  -13   -2    0    2    2   -0.000007    0.000000
  -13   -1    0    1    1   -0.000003   -0.000000
  -13   -1    0    2    1   -0.000002   -0.000000
  -13   -1    0    1    2   -0.000008    0.000000
  -13   -1    0    2    2   -0.000003    0.000000
  -13    0    0    1    1    0.000000   -0.000000
  -13    0    0    2    1    0.000008    0.000000
  -13    0    0    1    2   -0.000008    0.000000
  -13    0    0    2    2    0.000000    0.000000
  -13    1    0    1    1    0.000005   -0.000000
  -13    1    0    2    1    0.000001   -0.000000
  -13    1    0    1    2   -0.000002   -0.000000
  -13    1    0    2    2    0.000005    0.000000
  -13    2    0    1    1   -0.000003   -0.000000
  -13    2    0    2    1   -0.000013   -0.000000
  -13    2    0    1    2    0.000004   -0.000000
  -13    2    0    2    2   -0.000003    0.000000
  -13    3    0    1    1   -0.000001   -0.000000
  -13    3    0    2    1    0.000018   -0.000000
  -13    3    0    1    2    0.000003   -0.000000
  -13    3    0    2    2   -0.000001    0.000000
  -13    4    0    1    1    0.000001    0.000000
  -13    4    0    2    1   -0.000011   -0.000000
  -13    4    0    1    2    0.000005    0.000000
  -13    4    0    2    2    0.000001   -0.000000
  -13    5    0    1    1    0.000000   -0.000000
  -13    5    0    2    1   -0.000005   -0.000000
  -13    5    0    1    2   -0.000014   -0.000000
  -13    5    0    2    2    0.000000    0.000000
  -13    6    0    1    1   -0.000001   -0.000000
  -13    6    0    2    1   -0.000001   -0.000000
  -13    6    0    1    2    0.000007   -0.000000
  -13    6    0    2    2   -0.000001    0.000000
  -13    7    0    1    1    0.000002    0.000000
  -13    7    0    2    1   -0.000009   -0.000000
  -13    7    0    1    2   -0.000001    0.000000
  -13    7    0    2    2    0.000002   -0.000000
  -13    8    0    1    1   -0.000002   -0.000000
  -13    8    0    2    1   -0.000000   -0.000000
  -13    8    0    1    2    0.000007   -0.000000
  -13    8    0    2    2   -0.000002   -0.000000
  -13    9    0    1    1    0.000001    0.000000
  -13    9    0    2    1   -0.000004    0.000000
  -13    9    0    1    2    0.000002    0.000000
  -13    9    0    2    2    0.000001   -0.000000
  -13   10    0    1    1   -0.000001   -0.000000
  -13   10    0    2    1   -0.000002    0.000000
  -13   10    0    1    2    0.000004   -0.000000
  -13   10    0    2    2   -0.000001    0.000000
  -12  -24    0    1    1   -0.000005   -0.000000
  -12  -24    0    2    1   -0.000000   -0.000000
  -12  -24    0    1    2    0.000005    0.000000
  -12  -24    0    2    2   -0.000005    0.000000
  -12  -23    0    1    1    0.000003   -0.000000
  -12  -23    0    2    1   -0.000002   -0.000000
  -12  -23    0    1    2    0.000005    0.000000
  -12  -23    0    2    2    0.000003    0.000000
  -12  -22    0    1    1   -0.000005    0.000000
  -12  -22    0    2    1    0.000005    0.000000
  -12  -22    0    1    2   -0.000006    0.000000
  -12  -22    0    2    2   -0.000005   -0.000000
  -12  -21    0    1    1    0.000003   -0.000000
  -12  -21    0    2    1   -0.000001   -0.000000
  -12  -21    0    1    2    0.000004   -0.000000
  -12  -21    0    2    2    0.000003   -0.000000
  -12  -20    0    1    1    0.000000    0.000000
  -12  -20    0    2    1    0.000011   -0.000000
  -12  -20    0    1    2   -0.000010   -0.000000
  -12  -20    0    2    2    0.000000   -0.000000
  -12  -19    0    1    1    0.000003    0.000000
  -12  -19    0    2    1    0.000001   -0.000000
  -12  -19    0    1    2   -0.000002    0.000000
  -12  -19    0    2    2    0.000003   -0.000000
  -12  -18    0    1    1   -0.000001    0.000000
  -12  -18    0    2    1    0.000009    0.000000
  -12  -18    0    1    2   -0.000005    0.000000
  -12  -18    0    2    2   -0.000001   -0.000000
  -12  -17    0    1    1   -0.000002   -0.000000
  -12  -17    0    2    1    0.000005    0.000000
  -12  -17    0    1    2   -0.000008   -0.000000
  -12  -17    0    2    2   -0.000002    0.000000
  -12  -16    0    1    1    0.000002    0.000000
  -12  -16    0    2    1   -0.000008    0.000000
  -12  -16    0    1    2    0.000006   -0.000000
  -12  -16    0    2    2    0.000002    0.000000
  -12  -15    0    1    1   -0.000002    0.000000
  -12  -15    0    2    1    0.000003    0.000000
  -12  -15    0    1    2    0.000002   -0.000000
  -12  -15    0    2    2   -0.000002   -0.000000
  -12  -14    0    1    1    0.000003    0.000000
  -12  -14    0    2    1    0.000005    0.000000
  -12  -14    0    1    2   -0.000018   -0.000000
  -12  -14    0    2    2    0.000003   -0.000000
  -12  -13    0    1    1   -0.000003    0.000000
  -12  -13    0    2    1   -0.000007    0.000000
  -12  -13    0    1    2    0.000016    0.000000
  -12  -13    0    2    2   -0.000003   -0.000000
  -12  -12    0    1    1   -0.000007   -0.000000
  -12  -12    0    2    1   -0.000008   -0.000000
  -12  -12    0    1    2   -0.000008   -0.000000
  -12  -12    0    2    2   -0.000007    0.000000
  -12  -11    0    1    1    0.000009   -0.000000
  -12  -11    0    2    1   -0.000001   -0.000000
  -12  -11    0    1    2    0.000017   -0.000000
  -12  -11    0    2    2    0.000009    0.000000
  -12  -10    0    1    1    0.000001   -0.000000
  -12  -10    0    2    1   -0.000016   -0.000000
  -12  -10    0    1    2    0.000009    0.000000
  -12  -10    0    2    2    0.000001    0.000000
  -12   -9    0    1    1   -0.000000    0.000000
  -12   -9    0    2    1   -0.000003   -0.000000
  -12   -9    0    1    2   -0.000008    0.000000
  -12   -9    0    2    2   -0.000000   -0.000000
  -12   -8    0    1    1    0.000001   -0.000000
  -12   -8    0    2    1    0.000018   -0.000000
  -12   -8    0    1    2   -0.000015    0.000000
  -12   -8    0    2    2    0.000001    0.000000
  -12   -7    0    1    1    0.000002   -0.000000
  -12   -7    0    2    1    0.000021   -0.000000
  -12   -7    0    1    2   -0.000014    0.000000
  -12   -7    0    2    2    0.000002   -0.000000
  -12   -6    0    1    1    0.000001    0.000000
  -12   -6    0    2    1    0.000021    0.000000
  -12   -6    0    1    2   -0.000023   -0.000000
  -12   -6    0    2    2    0.000001   -0.000000
  -12   -5    0    1    1    0.000002   -0.000000
  -12   -5    0    2    1    0.000018    0.000000
  -12   -5    0    1    2   -0.000023   -0.000000
  -12   -5    0    2    2    0.000002    0.000000
  -12   -4    0    1    1    0.000001   -0.000000
  -12   -4    0    2    1   -0.000003    0.000000
  -12   -4    0    1    2   -0.000014   -0.000000
  -12   -4    0    2    2    0.000001    0.000000
  -12   -3    0    1    1   -0.000000   -0.000000
  -12   -3    0    2    1   -0.000016   -0.000000
  -12   -3    0    1    2   -0.000015    0.000000
  -12   -3    0    2    2   -0.000000    0.000000
  -12   -2    0    1    1    0.000001   -0.000000
  -12   -2    0    2    1   -0.000001   -0.000000
  -12   -2    0    1    2   -0.000008    0.000000
  -12   -2    0    2    2    0.000001    0.000000
  -12   -1    0    1    1    0.000009    0.000000
  -12   -1    0    2    1   -0.000008   -0.000000
  -12   -1    0    1    2    0.000009    0.000000
  -12   -1    0    2    2    0.000009   -0.000000
  -12    0    0    1    1   -0.000007    0.000000
  -12    0    0    2    1   -0.000008    0.000000
  -12    0    0    1    2    0.000017    0.000000
  -12    0    0    2    2   -0.000007   -0.000000
  -12    1    0    1    1   -0.000003    0.000000
  -12    1    0    2    1    0.000005    0.000000
  -12    1    0    1    2   -0.000008   -0.000000
  -12    1    0    2    2   -0.000003   -0.000000
  -12    2    0    1    1    0.000003   -0.000000
  -12    2    0    2    1    0.000003    0.000000
  -12    2    0    1    2    0.000016   -0.000000
  -12    2    0    2    2    0.000003    0.000000
  -12    3    0    1    1   -0.000002   -0.000000
  -12    3    0    2    1   -0.000008    0.000000
  -12    3    0    1    2   -0.000018   -0.000000
  -12    3    0    2    2   -0.000002    0.000000
  -12    4    0    1    1    0.000002    0.000000
  -12    4    0    2    1    0.000005   -0.000000
  -12    4    0    1    2    0.000002   -0.000000
  -12    4    0    2    2    0.000002   -0.000000
  -12    5    0    1    1   -0.000002   -0.000000
  -12    5    0    2    1    0.000009    0.000000
  -12    5    0    1    2    0.000006   -0.000000
  -12    5    0    2    2   -0.000002    0.000000
  -12    6    0    1    1   -0.000001   -0.000000
  -12    6    0    2    1    0.000001   -0.000000
  -12    6    0    1    2   -0.000008   -0.000000
  -12    6    0    2    2   -0.000001    0.000000
  -12    7    0    1    1    0.000003    0.000000
  -12    7    0    2    1    0.000011   -0.000000
  -12    7    0    1    2   -0.000005   -0.000000
  -12    7    0    2    2    0.000003   -0.000000
  -12    8    0    1    1    0.000000    0.000000
  -12    8    0    2    1   -0.000001   -0.000000
  -12    8    0    1    2   -0.000002   -0.000000
  -12    8    0    2    2    0.000000   -0.000000
  -12    9    0    1    1    0.000003    0.000000
  -12    9    0    2    1    0.000005   -0.000000
  -12    9    0    1    2   -0.000010    0.000000
  -12    9    0    2    2    0.000003    0.000000
  -12   10    0    1    1   -0.000005    0.000000
  -12   10    0    2    1   -0.000002    0.000000
  -12   10    0    1    2    0.000004    0.000000
  -12   10    0    2    2   -0.000005   -0.000000
  -12   11    0    1    1    0.000003   -0.000000
  -12   11    0    2    1   -0.000000    0.000000
  -12   11    0    1    2   -0.000006    0.000000
  -12   11    0    2    2    0.000003    0.000000
  -11  -23    0    1    1    0.000003    0.000000
  -11  -23    0    2    1    0.000002   -0.000000
  -11  -23    0    1    2   -0.000001    0.000000
  -11  -23    0    2    2    0.000003   -0.000000
  -11  -22    0    1    1    0.000002    0.000000
  -11  -22    0    2    1    0.000003    0.000000
  -11  -22    0    1    2   -0.000006   -0.000000
  -11  -22    0    2    2    0.000002   -0.000000
  -11  -21    0    1    1    0.000001    0.000000
  -11  -21    0    2    1   -0.000006    0.000000
  -11  -21    0    1    2    0.000003   -0.000000
  -11  -21    0    2    2    0.000001   -0.000000
  -11  -20    0    1    1   -0.000001   -0.000000
  -11  -20    0    2    1    0.000002    0.000000
  -11  -20    0    1    2   -0.000002   -0.000000
  -11  -20    0    2    2   -0.000001    0.000000
  -11  -19    0    1    1   -0.000001    0.000000
  -11  -19    0    2    1   -0.000011   -0.000000
  -11  -19    0    1    2    0.000012   -0.000000
  -11  -19    0    2    2   -0.000001   -0.000000
  -11  -18    0    1    1   -0.000004   -0.000000
  -11  -18    0    2    1   -0.000005   -0.000000
  -11  -18    0    1    2    0.000004    0.000000
  -11  -18    0    2    2   -0.000004    0.000000
  -11  -17    0    1    1    0.000003    0.000000
  -11  -17    0    2    1    0.000000    0.000000
  -11  -17    0    1    2    0.000004    0.000000
  -11  -17    0    2    2    0.000003   -0.000000
  -11  -16    0    1    1   -0.000003    0.000000
  -11  -16    0    2    1   -0.000017    0.000000
  -11  -16    0    1    2    0.000010   -0.000000
  -11  -16    0    2    2   -0.000003   -0.000000
  -11  -15    0    1    1    0.000003    0.000000
  -11  -15    0    2    1    0.000026    0.000000
  -11  -15    0    1    2   -0.000010    0.000000
  -11  -15    0    2    2    0.000003   -0.000000
  -11  -14    0    1    1   -0.000002    0.000000
  -11  -14    0    2    1   -0.000014   -0.000000
  -11  -14    0    1    2    0.000007   -0.000000
  -11  -14    0    2    2   -0.000002   -0.000000
  -11  -13    0    1    1   -0.000007    0.000000
  -11  -13    0    2    1   -0.000008   -0.000000
  -11  -13    0    1    2    0.000001    0.000000
  -11  -13    0    2    2   -0.000007   -0.000000
  -11  -12    0    1    1    0.000009   -0.000000
  -11  -12    0    2    1    0.000017    0.000000
  -11  -12    0    1    2   -0.000001    0.000000
  -11  -12    0    2    2    0.000009    0.000000
  -11  -11    0    1    1   -0.000001   -0.000000
  -11  -11    0    2    1   -0.000007   -0.000000
  -11  -11    0    1    2   -0.000007    0.000000
  -11  -11    0    2    2   -0.000001    0.000000
  -11  -10    0    1    1   -0.000003   -0.000000
  -11  -10    0    2    1    0.000019   -0.000000
  -11  -10    0    1    2   -0.000012   -0.000000
  -11  -10    0    2    2   -0.000003    0.000000
  -11   -9    0    1    1   -0.000004    0.000000
  -11   -9    0    2    1    0.000001   -0.000000
  -11   -9    0    1    2   -0.000013    0.000000
  -11   -9    0    2    2   -0.000004   -0.000000
  -11   -8    0    1    1    0.000006   -0.000000
  -11   -8    0    2    1    0.000002   -0.000000
  -11   -8    0    1    2    0.000006    0.000000
  -11   -8    0    2    2    0.000006    0.000000
  -11   -7    0    1    1    0.000002   -0.000000
  -11   -7    0    2    1   -0.000017    0.000000
  -11   -7    0    1    2    0.000021   -0.000000
  -11   -7    0    2    2    0.000002    0.000000
  -11   -6    0    1    1    0.000007    0.000000
  -11   -6    0    2    1   -0.000012   -0.000000
  -11   -6    0    1    2    0.000024   -0.000000
  -11   -6    0    2    2    0.000007   -0.000000
  -11   -5    0    1    1    0.000007    0.000000
  -11   -5    0    2    1   -0.000017    0.000000
  -11   -5    0    1    2    0.000024    0.000000
  -11   -5    0    2    2    0.000007   -0.000000
  -11   -4    0    1    1    0.000002    0.000000
  -11   -4    0    2    1    0.000002    0.000000
  -11   -4    0    1    2    0.000024    0.000000
  -11   -4    0    2    2    0.000002   -0.000000
  -11   -3    0    1    1    0.000006   -0.000000
  -11   -3    0    2    1    0.000001    0.000000
  -11   -3    0    1    2    0.000021   -0.000000
  -11   -3    0    2    2    0.000006    0.000000
  -11   -2    0    1    1   -0.000004   -0.000000
  -11   -2    0    2    1    0.000019   -0.000000
  -11   -2    0    1    2    0.000006    0.000000
  -11   -2    0    2    2   -0.000004    0.000000
  -11   -1    0    1    1   -0.000003   -0.000000
  -11   -1    0    2    1   -0.000007   -0.000000
  -11   -1    0    1    2   -0.000013   -0.000000
  -11   -1    0    2    2   -0.000003    0.000000
  -11    0    0    1    1   -0.000001   -0.000000
  -11    0    0    2    1    0.000017   -0.000000
  -11    0    0    1    2   -0.000012    0.000000
  -11    0    0    2    2   -0.000001    0.000000
  -11    1    0    1    1    0.000009    0.000000
  -11    1    0    2    1   -0.000008    0.000000
  -11    1    0    1    2   -0.000007   -0.000000
  -11    1    0    2    2    0.000009   -0.000000
  -11    2    0    1    1   -0.000007    0.000000
  -11    2    0    2    1   -0.000014    0.000000
  -11    2    0    1    2   -0.000001   -0.000000
  -11    2    0    2    2   -0.000007   -0.000000
  -11    3    0    1    1   -0.000002    0.000000
  -11    3    0    2    1    0.000026    0.000000
  -11    3    0    1    2    0.000001   -0.000000
  -11    3    0    2    2   -0.000002   -0.000000
  -11    4    0    1    1    0.000003    0.000000
  -11    4    0    2    1   -0.000017    0.000000
  -11    4    0    1    2    0.000007   -0.000000
  -11    4    0    2    2    0.000003   -0.000000
  -11    5    0    1    1   -0.000003    0.000000
  -11    5    0    2    1    0.000000    0.000000
  -11    5    0    1    2   -0.000010   -0.000000
  -11    5    0    2    2   -0.000003   -0.000000
  -11    6    0    1    1    0.000003   -0.000000
  -11    6    0    2    1   -0.000005    0.000000
  -11    6    0    1    2    0.000010   -0.000000
  -11    6    0    2    2    0.000003   -0.000000
  -11    7    0    1    1   -0.000004    0.000000
  -11    7    0    2    1   -0.000011   -0.000000
  -11    7    0    1    2    0.000004   -0.000000
  -11    7    0    2    2   -0.000004   -0.000000
  -11    8    0    1    1   -0.000001    0.000000
  -11    8    0    2    1    0.000002   -0.000000
  -11    8    0    1    2    0.000004   -0.000000
  -11    8    0    2    2   -0.000001   -0.000000
  -11    9    0    1    1   -0.000001   -0.000000
  -11    9    0    2    1   -0.000006   -0.000000
  -11    9    0    1    2    0.000012   -0.000000
  -11    9    0    2    2   -0.000001    0.000000
  -11   10    0    1    1    0.000001    0.000000
  -11   10    0    2    1    0.000003   -0.000000
  -11   10    0    1    2   -0.000002    0.000000
  -11   10    0    2    2    0.000001   -0.000000
  -11   11    0    1    1    0.000002    0.000000
  -11   11    0    2    1    0.000002   -0.000000
  -11   11    0    1    2    0.000003    0.000000
  -11   11    0    2    2    0.000002   -0.000000
  -11   12    0    1    1    0.000003    0.000000
  -11   12    0    2    1   -0.000000   -0.000000
  -11   12    0    1    2   -0.000006    0.000000
  -11   12    0    2    2    0.000003   -0.000000
  -10  -23    0    1    1   -0.000001    0.000000
  -10  -23    0    2    1   -0.000002    0.000000
  -10  -23    0    1    2    0.000004    0.000000
  -10  -23    0    2    2   -0.000001   -0.000000
  -10  -22    0    1    1   -0.000005    0.000000
  -10  -22    0    2    1    0.000003    0.000000
  -10  -22    0    1    2    0.000004    0.000000
  -10  -22    0    2    2   -0.000005   -0.000000
  -10  -21    0    1    1    0.000001    0.000000
  -10  -21    0    2    1   -0.000003    0.000000
  -10  -21    0    1    2    0.000004   -0.000000
  -10  -21    0    2    2    0.000001   -0.000000
  -10  -20    0    1    1   -0.000001   -0.000000
  -10  -20    0    2    1    0.000008   -0.000000
  -10  -20    0    1    2   -0.000002   -0.000000
  -10  -20    0    2    2   -0.000001    0.000000
  -10  -19    0    1    1    0.000002    0.000000
  -10  -19    0    2    1   -0.000009    0.000000
  -10  -19    0    1    2   -0.000004    0.000000
  -10  -19    0    2    2    0.000002   -0.000000
  -10  -18    0    1    1   -0.000001    0.000000
  -10  -18    0    2    1    0.000016   -0.000000
  -10  -18    0    1    2   -0.000004   -0.000000
  -10  -18    0    2    2   -0.000001   -0.000000
  -10  -17    0    1    1    0.000002   -0.000000
  -10  -17    0    2    1   -0.000007    0.000000
  -10  -17    0    1    2   -0.000015   -0.000000
  -10  -17    0    2    2    0.000002    0.000000
  -10  -16    0    1    1    0.000000    0.000000
  -10  -16    0    2    1    0.000012   -0.000000
  -10  -16    0    1    2    0.000004   -0.000000
  -10  -16    0    2    2    0.000000   -0.000000
  -10  -15    0    1    1    0.000001   -0.000000
  -10  -15    0    2    1   -0.000002   -0.000000
  -10  -15    0    1    2   -0.000011    0.000000
  -10  -15    0    2    2    0.000001    0.000000
  -10  -14    0    1    1    0.000003    0.000000
  -10  -14    0    2    1   -0.000014    0.000000
  -10  -14    0    1    2    0.000015    0.000000
  -10  -14    0    2    2    0.000003   -0.000000
  -10  -13    0    1    1   -0.000004    0.000000
  -10  -13    0    2    1   -0.000002   -0.000000
  -10  -13    0    1    2    0.000005    0.000000
  -10  -13    0    2    2   -0.000004   -0.000000
  -10  -12    0    1    1    0.000001    0.000000
  -10  -12    0    2    1    0.000009   -0.000000
  -10  -12    0    1    2   -0.000016    0.000000
  -10  -12    0    2    2    0.000001    0.000000
  -10  -11    0    1    1   -0.000003   -0.000000
  -10  -11    0    2    1   -0.000012    0.000000
  -10  -11    0    1    2    0.000019   -0.000000
  -10  -11    0    2    2   -0.000003    0.000000
  -10  -10    0    1    1    0.000003   -0.000000
  -10  -10    0    2    1    0.000001    0.000000
  -10  -10    0    1    2    0.000001   -0.000000
  -10  -10    0    2    2    0.000003   -0.000000
  -10   -9    0    1    1    0.000010    0.000000
  -10   -9    0    2    1   -0.000003   -0.000000
  -10   -9    0    1    2    0.000023   -0.000000
  -10   -9    0    2    2    0.000010   -0.000000
  -10   -8    0    1    1   -0.000000    0.000000
  -10   -8    0    2    1   -0.000002   -0.000000
  -10   -8    0    1    2    0.000008    0.000000
  -10   -8    0    2    2   -0.000000   -0.000000
  -10   -7    0    1    1   -0.000009   -0.000000
  -10   -7    0    2    1    0.000001    0.000000
  -10   -7    0    1    2   -0.000011   -0.000000
  -10   -7    0    2    2   -0.000009    0.000000
  -10   -6    0    1    1   -0.000010   -0.000000
  -10   -6    0    2    1    0.000034    0.000000
  -10   -6    0    1    2   -0.000045   -0.000000
  -10   -6    0    2    2   -0.000010    0.000000
  -10   -5    0    1    1   -0.000001   -0.000000
  -10   -5    0    2    1    0.000034   -0.000000
  -10   -5    0    1    2   -0.000041    0.000000
  -10   -5    0    2    2   -0.000001    0.000000
  -10   -4    0    1    1   -0.000010   -0.000000
  -10   -4    0    2    1    0.000001   -0.000000
  -10   -4    0    1    2   -0.000041    0.000000
  -10   -4    0    2    2   -0.000010    0.000000
  -10   -3    0    1    1   -0.000009    0.000000
  -10   -3    0    2    1   -0.000002   -0.000000
  -10   -3    0    1    2   -0.000045    0.000000
  -10   -3    0    2    2   -0.000009   -0.000000
  -10   -2    0    1    1   -0.000000    0.000000
  -10   -2    0    2    1   -0.000003   -0.000000
  -10   -2    0    1    2   -0.000011    0.000000
  -10   -2    0    2    2   -0.000000   -0.000000
  -10   -1    0    1    1    0.000010    0.000000
  -10   -1    0    2    1    0.000001    0.000000
  -10   -1    0    1    2    0.000008   -0.000000
  -10   -1    0    2    2    0.000010   -0.000000
  -10    0    0    1    1    0.000003    0.000000
  -10    0    0    2    1   -0.000012   -0.000000
  -10    0    0    1    2    0.000023   -0.000000
  -10    0    0    2    2    0.000003   -0.000000
  -10    1    0    1    1   -0.000003    0.000000
  -10    1    0    2    1    0.000009   -0.000000
  -10    1    0    1    2    0.000001    0.000000
  -10    1    0    2    2   -0.000003   -0.000000
  -10    2    0    1    1    0.000001   -0.000000
  -10    2    0    2    1   -0.000002    0.000000
  -10    2    0    1    2    0.000019   -0.000000
  -10    2    0    2    2    0.000001   -0.000000
  -10    3    0    1    1   -0.000004   -0.000000
  -10    3    0    2    1   -0.000014    0.000000
  -10    3    0    1    2   -0.000016   -0.000000
  -10    3    0    2    2   -0.000004    0.000000
  -10    4    0    1    1    0.000003   -0.000000
  -10    4    0    2    1   -0.000002    0.000000
  -10    4    0    1    2    0.000005   -0.000000
  -10    4    0    2    2    0.000003    0.000000
  -10    5    0    1    1    0.000001    0.000000
  -10    5    0    2    1    0.000012    0.000000
  -10    5    0    1    2    0.000015   -0.000000
  -10    5    0    2    2    0.000001   -0.000000
  -10    6    0    1    1    0.000000   -0.000000
  -10    6    0    2    1   -0.000007    0.000000
  -10    6    0    1    2   -0.000011    0.000000
  -10    6    0    2    2    0.000000    0.000000
  -10    7    0    1    1    0.000002    0.000000
  -10    7    0    2    1    0.000016    0.000000
  -10    7    0    1    2    0.000004   -0.000000
  -10    7    0    2    2    0.000002   -0.000000
  -10    8    0    1    1   -0.000001    0.000000
  -10    8    0    2    1   -0.000009    0.000000
  -10    8    0    1    2   -0.000015   -0.000000
  -10    8    0    2    2   -0.000001   -0.000000
  -10    9    0    1    1    0.000002   -0.000000
  -10    9    0    2    1    0.000008   -0.000000
  -10    9    0    1    2   -0.000004   -0.000000
  -10    9    0    2    2    0.000002    0.000000
  -10   10    0    1    1   -0.000001    0.000000
  -10   10    0    2    1   -0.000003   -0.000000
  -10   10    0    1    2   -0.000004   -0.000000
  -10   10    0    2    2   -0.000001   -0.000000
  -10   11    0    1    1    0.000001    0.000000
  -10   11    0    2    1    0.000003   -0.000000
  -10   11    0    1    2   -0.000002    0.000000
  -10   11    0    2    2    0.000001   -0.000000
  -10   12    0    1    1   -0.000005    0.000000
  -10   12    0    2    1   -0.000002   -0.000000
  -10   12    0    1    2    0.000004    0.000000
  -10   12    0    2    2   -0.000005   -0.000000
   -9  -22    0    1    1    0.000001   -0.000000
   -9  -22    0    2    1    0.000005    0.000000
   -9  -22    0    1    2   -0.000012   -0.000000
   -9  -22    0    2    2    0.000001   -0.000000
   -9  -21    0    1    1    0.000003    0.000000
   -9  -21    0    2    1   -0.000006   -0.000000
   -9  -21    0    1    2    0.000002    0.000000
   -9  -21    0    2    2    0.000003   -0.000000
   -9  -20    0    1    1   -0.000001   -0.000000
   -9  -20    0    2    1    0.000008   -0.000000
   -9  -20    0    1    2   -0.000010   -0.000000
   -9  -20    0    2    2   -0.000001    0.000000
   -9  -19    0    1    1    0.000002   -0.000000
   -9  -19    0    2    1   -0.000012   -0.000000
   -9  -19    0    1    2    0.000012    0.000000
   -9  -19    0    2    2    0.000002    0.000000
   -9  -18    0    1    1   -0.000004   -0.000000
   -9  -18    0    2    1    0.000011    0.000000
   -9  -18    0    1    2   -0.000004    0.000000
   -9  -18    0    2    2   -0.000004   -0.000000
   -9  -17    0    1    1    0.000004    0.000000
   -9  -17    0    2    1   -0.000010   -0.000000
   -9  -17    0    1    2    0.000012   -0.000000
   -9  -17    0    2    2    0.000004   -0.000000
   -9  -16    0    1    1   -0.000004   -0.000000
   -9  -16    0    2    1   -0.000000   -0.000000
   -9  -16    0    1    2    0.000005    0.000000
   -9  -16    0    2    2   -0.000004    0.000000
   -9  -15    0    1    1    0.000008   -0.000000
   -9  -15    0    2    1    0.000003   -0.000000
   -9  -15    0    1    2   -0.000000    0.000000
   -9  -15    0    2    2    0.000008   -0.000000
   -9  -14    0    1    1   -0.000003    0.000000
   -9  -14    0    2    1   -0.000014   -0.000000
   -9  -14    0    1    2    0.000014    0.000000
   -9  -14    0    2    2   -0.000003   -0.000000
   -9  -13    0    1    1    0.000003    0.000000
   -9  -13    0    2    1    0.000030   -0.000000
   -9  -13    0    1    2   -0.000022    0.000000
   -9  -13    0    2    2    0.000003   -0.000000
   -9  -12    0    1    1   -0.000000   -0.000000
   -9  -12    0    2    1   -0.000008    0.000000
   -9  -12    0    1    2   -0.000003   -0.000000
   -9  -12    0    2    2   -0.000000    0.000000
   -9  -11    0    1    1   -0.000004    0.000000
   -9  -11    0    2    1   -0.000013    0.000000
   -9  -11    0    1    2    0.000001   -0.000000
   -9  -11    0    2    2   -0.000004    0.000000
   -9  -10    0    1    1    0.000010   -0.000000
   -9  -10    0    2    1    0.000023    0.000000
   -9  -10    0    1    2   -0.000003    0.000000
   -9  -10    0    2    2    0.000010    0.000000
   -9   -9    0    1    1    0.000001    0.000000
   -9   -9    0    2    1    0.000005   -0.000000
   -9   -9    0    1    2    0.000005    0.000000
   -9   -9    0    2    2    0.000001    0.000000
   -9   -8    0    1    1   -0.000017    0.000000
   -9   -8    0    2    1   -0.000007   -0.000000
   -9   -8    0    1    2   -0.000025    0.000000
   -9   -8    0    2    2   -0.000017    0.000000
   -9   -7    0    1    1   -0.000007    0.000000
   -9   -7    0    2    1    0.000007    0.000000
   -9   -7    0    1    2   -0.000024    0.000000
   -9   -7    0    2    2   -0.000007   -0.000000
   -9   -6    0    1    1    0.000002   -0.000000
   -9   -6    0    2    1   -0.000019    0.000000
   -9   -6    0    1    2    0.000017   -0.000000
   -9   -6    0    2    2    0.000002    0.000000
   -9   -5    0    1    1    0.000009   -0.000000
   -9   -5    0    2    1   -0.000033   -0.000000
   -9   -5    0    1    2    0.000030   -0.000000
   -9   -5    0    2    2    0.000009    0.000000
   -9   -4    0    1    1    0.000009   -0.000000
   -9   -4    0    2    1   -0.000019   -0.000000
   -9   -4    0    1    2    0.000060   -0.000000
   -9   -4    0    2    2    0.000009    0.000000
   -9   -3    0    1    1    0.000002   -0.000000
   -9   -3    0    2    1    0.000007   -0.000000
   -9   -3    0    1    2    0.000030   -0.000000
   -9   -3    0    2    2    0.000002    0.000000
   -9   -2    0    1    1   -0.000007   -0.000000
   -9   -2    0    2    1   -0.000007    0.000000
   -9   -2    0    1    2    0.000017   -0.000000
   -9   -2    0    2    2   -0.000007    0.000000
   -9   -1    0    1    1   -0.000017    0.000000
   -9   -1    0    2    1    0.000005    0.000000
   -9   -1    0    1    2   -0.000024    0.000000
   -9   -1    0    2    2   -0.000017   -0.000000
   -9    0    0    1    1    0.000001    0.000000
   -9    0    0    2    1    0.000023    0.000000
   -9    0    0    1    2   -0.000025   -0.000000
   -9    0    0    2    2    0.000001   -0.000000
   -9    1    0    1    1    0.000010    0.000000
   -9    1    0    2    1   -0.000013    0.000000
   -9    1    0    1    2    0.000005   -0.000000
   -9    1    0    2    2    0.000010   -0.000000
   -9    2    0    1    1   -0.000004   -0.000000
   -9    2    0    2    1   -0.000008    0.000000
   -9    2    0    1    2   -0.000003   -0.000000
   -9    2    0    2    2   -0.000004    0.000000
   -9    3    0    1    1   -0.000000   -0.000000
   -9    3    0    2    1    0.000030    0.000000
   -9    3    0    1    2    0.000001   -0.000000
   -9    3    0    2    2   -0.000000    0.000000
   -9    4    0    1    1    0.000003   -0.000000
   -9    4    0    2    1   -0.000014    0.000000
   -9    4    0    1    2   -0.000003   -0.000000
   -9    4    0    2    2    0.000003    0.000000
   -9    5    0    1    1   -0.000003    0.000000
   -9    5    0    2    1    0.000003   -0.000000
   -9    5    0    1    2   -0.000022   -0.000000
   -9    5    0    2    2   -0.000003   -0.000000
   -9    6    0    1    1    0.000008   -0.000000
   -9    6    0    2    1   -0.000000   -0.000000
   -9    6    0    1    2    0.000014    0.000000
   -9    6    0    2    2    0.000008    0.000000
   -9    7    0    1    1   -0.000004   -0.000000
   -9    7    0    2    1   -0.000010    0.000000
   -9    7    0    1    2   -0.000000    0.000000
   -9    7    0    2    2   -0.000004    0.000000
   -9    8    0    1    1    0.000004   -0.000000
   -9    8    0    2    1    0.000011    0.000000
   -9    8    0    1    2    0.000005   -0.000000
   -9    8    0    2    2    0.000004   -0.000000
   -9    9    0    1    1   -0.000004   -0.000000
   -9    9    0    2    1   -0.000012    0.000000
   -9    9    0    1    2    0.000012   -0.000000
   -9    9    0    2    2   -0.000004    0.000000
   -9   10    0    1    1    0.000002   -0.000000
   -9   10    0    2    1    0.000008    0.000000
   -9   10    0    1    2   -0.000004   -0.000000
   -9   10    0    2    2    0.000002    0.000000
   -9   11    0    1    1   -0.000001    0.000000
   -9   11    0    2    1   -0.000006    0.000000
   -9   11    0    1    2    0.000012    0.000000
   -9   11    0    2    2   -0.000001   -0.000000
   -9   12    0    1    1    0.000003   -0.000000
   -9   12    0    2    1    0.000005    0.000000
   -9   12    0    1    2   -0.000010   -0.000000
   -9   12    0    2    2    0.000003    0.000000
   -9   13    0    1    1    0.000001   -0.000000
   -9   13    0    2    1   -0.000004   -0.000000
   -9   13    0    1    2    0.000002   -0.000000
   -9   13    0    2    2    0.000001    0.000000
   -8  -22    0    1    1   -0.000002    0.000000
   -8  -22    0    2    1   -0.000000   -0.000000
   -8  -22    0    1    2    0.000005    0.000000
   -8  -22    0    2    2   -0.000002   -0.000000
   -8  -21    0    1    1   -0.000002    0.000000
   -8  -21    0    2    1   -0.000001    0.000000
   -8  -21    0    1    2    0.000005    0.000000
   -8  -21    0    2    2   -0.000002   -0.000000
   -8  -20    0    1    1    0.000000   -0.000000
   -8  -20    0    2    1    0.000002    0.000000
   -8  -20    0    1    2    0.000007   -0.000000
   -8  -20    0    2    2    0.000000    0.000000
   -8  -19    0    1    1   -0.000001   -0.000000
   -8  -19    0    2    1   -0.000009   -0.000000
   -8  -19    0    1    2   -0.000002   -0.000000
   -8  -19    0    2    2   -0.000001    0.000000
   -8  -18    0    1    1   -0.000001   -0.000000
   -8  -18    0    2    1    0.000011   -0.000000
   -8  -18    0    1    2    0.000004    0.000000
   -8  -18    0    2    2   -0.000001    0.000000
   -8  -17    0    1    1    0.000004    0.000000
   -8  -17    0    2    1   -0.000010   -0.000000
   -8  -17    0    1    2   -0.000015    0.000000
   -8  -17    0    2    2    0.000004   -0.000000
   -8  -16    0    1    1   -0.000003    0.000000
   -8  -16    0    2    1    0.000015   -0.000000
   -8  -16    0    1    2    0.000005   -0.000000
   -8  -16    0    2    2   -0.000003   -0.000000
   -8  -15    0    1    1    0.000003    0.000000
   -8  -15    0    2    1   -0.000010   -0.000000
   -8  -15    0    1    2   -0.000020    0.000000
   -8  -15    0    2    2    0.000003   -0.000000
   -8  -14    0    1    1   -0.000009    0.000000
   -8  -14    0    2    1    0.000001   -0.000000
   -8  -14    0    1    2    0.000014    0.000000
   -8  -14    0    2    2   -0.000009   -0.000000
   -8  -13    0    1    1    0.000002   -0.000000
   -8  -13    0    2    1    0.000016   -0.000000
   -8  -13    0    1    2   -0.000020   -0.000000
   -8  -13    0    2    2    0.000002   -0.000000
   -8  -12    0    1    1    0.000001   -0.000000
   -8  -12    0    2    1   -0.000015    0.000000
   -8  -12    0    1    2    0.000018   -0.000000
   -8  -12    0    2    2    0.000001    0.000000
   -8  -11    0    1    1    0.000006   -0.000000
   -8  -11    0    2    1    0.000006    0.000000
   -8  -11    0    1    2    0.000002    0.000000
   -8  -11    0    2    2    0.000006    0.000000
   -8  -10    0    1    1   -0.000000    0.000000
   -8  -10    0    2    1    0.000008    0.000000
   -8  -10    0    1    2   -0.000002    0.000000
   -8  -10    0    2    2   -0.000000    0.000000
   -8   -9    0    1    1   -0.000017   -0.000000
   -8   -9    0    2    1   -0.000025    0.000000
   -8   -9    0    1    2   -0.000007    0.000000
   -8   -9    0    2    2   -0.000017    0.000000
   -8   -8    0    1    1    0.000011   -0.000000
   -8   -8    0    2    1    0.000006   -0.000000
   -8   -8    0    1    2    0.000006    0.000000
   -8   -8    0    2    2    0.000011    0.000000
   -8   -7    0    1    1    0.000004    0.000000
   -8   -7    0    2    1   -0.000008   -0.000000
   -8   -7    0    1    2    0.000022    0.000000
   -8   -7    0    2    2    0.000004   -0.000000
   -8   -6    0    1    1    0.000002   -0.000000
   -8   -6    0    2    1    0.000006    0.000000
   -8   -6    0    1    2    0.000026    0.000000
   -8   -6    0    2    2    0.000002   -0.000000
   -8   -5    0    1    1   -0.000020   -0.000000
   -8   -5    0    2    1   -0.000006    0.000000
   -8   -5    0    1    2    0.000017    0.000000
   -8   -5    0    2    2   -0.000020    0.000000
   -8   -4    0    1    1   -0.000033   -0.000000
   -8   -4    0    2    1   -0.000006    0.000000
[...]
   16    7    0    2    1    0.000015   -0.000000
   16    7    0    1    2    0.000004    0.000000
   16    7    0    2    2   -0.000004    0.000000
   16    8    0    1    1   -0.000003    0.000000
   16    8    0    2    1    0.000015   -0.000000
   16    8    0    1    2    0.000005   -0.000000
   16    8    0    2    2   -0.000003   -0.000000
   16    9    0    1    1   -0.000004   -0.000000
   16    9    0    2    1   -0.000000    0.000000
   16    9    0    1    2    0.000005   -0.000000
   16    9    0    2    2   -0.000004    0.000000
   16   10    0    1    1    0.000000   -0.000000
   16   10    0    2    1    0.000012    0.000000
   16   10    0    1    2    0.000004   -0.000000
   16   10    0    2    2    0.000000    0.000000
   16   11    0    1    1   -0.000003    0.000000
   16   11    0    2    1   -0.000017    0.000000
   16   11    0    1    2    0.000010    0.000000
   16   11    0    2    2   -0.000003    0.000000
   16   12    0    1    1    0.000002   -0.000000
   16   12    0    2    1   -0.000008   -0.000000
   16   12    0    1    2    0.000006    0.000000
   16   12    0    2    2    0.000002    0.000000
   16   13    0    1    1   -0.000001   -0.000000
   16   13    0    2    1   -0.000013    0.000000
   16   13    0    1    2    0.000005    0.000000
   16   13    0    2    2   -0.000001    0.000000
   16   14    0    1    1    0.000002    0.000000
   16   14    0    2    1    0.000003    0.000000
   16   14    0    1    2   -0.000009   -0.000000
   16   14    0    2    2    0.000002   -0.000000
   16   15    0    1    1    0.000000   -0.000000
   16   15    0    2    1   -0.000003   -0.000000
   16   15    0    1    2    0.000007   -0.000000
   16   15    0    2    2    0.000000    0.000000
   16   16    0    1    1   -0.000003    0.000000
   16   16    0    2    1   -0.000002    0.000000
   16   16    0    1    2   -0.000002    0.000000
   16   16    0    2    2   -0.000003   -0.000000
   16   17    0    1    1    0.000000    0.000000
   16   17    0    2    1   -0.000002   -0.000000
   16   17    0    1    2    0.000003   -0.000000
   16   17    0    2    2    0.000000   -0.000000
   16   18    0    1    1   -0.000002   -0.000000
   16   18    0    2    1    0.000002   -0.000000
   16   18    0    1    2    0.000003    0.000000
   16   18    0    2    2   -0.000002   -0.000000
   16   19    0    1    1    0.000003   -0.000000
   16   19    0    2    1    0.000000    0.000000
   16   19    0    1    2    0.000007    0.000000
   16   19    0    2    2    0.000003    0.000000
   16   20    0    1    1   -0.000007   -0.000000
   16   20    0    2    1    0.000012    0.000000
   16   20    0    1    2   -0.000013    0.000000
   16   20    0    2    2   -0.000007    0.000000
   17   -2    0    1    1   -0.000001   -0.000000
   17   -2    0    2    1    0.000000    0.000000
   17   -2    0    1    2    0.000007    0.000000
   17   -2    0    2    2   -0.000001    0.000000
   17   -1    0    1    1    0.000002    0.000000
   17   -1    0    2    1   -0.000002    0.000000
   17   -1    0    1    2   -0.000006   -0.000000
   17   -1    0    2    2    0.000002   -0.000000
   17    0    0    1    1   -0.000001    0.000000
   17    0    0    2    1    0.000002    0.000000
   17    0    0    1    2    0.000001    0.000000
   17    0    0    2    2   -0.000001   -0.000000
   17    1    0    1    1    0.000000   -0.000000
   17    1    0    2    1   -0.000004    0.000000
   17    1    0    1    2   -0.000002   -0.000000
   17    1    0    2    2    0.000000    0.000000
   17    2    0    1    1   -0.000001   -0.000000
   17    2    0    2    1    0.000007    0.000000
   17    2    0    1    2   -0.000002   -0.000000
   17    2    0    2    2   -0.000001    0.000000
   17    3    0    1    1    0.000001   -0.000000
   17    3    0    2    1    0.000018    0.000000
   17    3    0    1    2    0.000001   -0.000000
   17    3    0    2    2    0.000001    0.000000
   17    4    0    1    1    0.000001   -0.000000
   17    4    0    2    1    0.000005    0.000000
   17    4    0    1    2   -0.000000   -0.000000
   17    4    0    2    2    0.000001    0.000000
   17    5    0    1    1   -0.000002   -0.000000
   17    5    0    2    1    0.000000   -0.000000
   17    5    0    1    2   -0.000014   -0.000000
   17    5    0    2    2   -0.000002    0.000000
   17    6    0    1    1    0.000003    0.000000
   17    6    0    2    1   -0.000007   -0.000000
   17    6    0    1    2   -0.000008    0.000000
   17    6    0    2    2    0.000003   -0.000000
   17    7    0    1    1    0.000002    0.000000
   17    7    0    2    1   -0.000010    0.000000
   17    7    0    1    2    0.000004    0.000000
   17    7    0    2    2    0.000002   -0.000000
   17    8    0    1    1    0.000004    0.000000
   17    8    0    2    1   -0.000010   -0.000000
   17    8    0    1    2   -0.000015    0.000000
   17    8    0    2    2    0.000004   -0.000000
   17    9    0    1    1    0.000004   -0.000000
   17    9    0    2    1   -0.000010   -0.000000
   17    9    0    1    2    0.000012    0.000000
   17    9    0    2    2    0.000004    0.000000
   17   10    0    1    1    0.000002   -0.000000
   17   10    0    2    1   -0.000007   -0.000000
   17   10    0    1    2   -0.000015    0.000000
   17   10    0    2    2    0.000002    0.000000
   17   11    0    1    1    0.000003   -0.000000
   17   11    0    2    1    0.000000   -0.000000
   17   11    0    1    2    0.000004    0.000000
   17   11    0    2    2    0.000003    0.000000
   17   12    0    1    1   -0.000002   -0.000000
   17   12    0    2    1    0.000005   -0.000000
   17   12    0    1    2   -0.000008    0.000000
   17   12    0    2    2   -0.000002    0.000000
   17   13    0    1    1    0.000001   -0.000000
   17   13    0    2    1    0.000018    0.000000
   17   13    0    1    2   -0.000014   -0.000000
   17   13    0    2    2    0.000001    0.000000
   17   14    0    1    1    0.000001    0.000000
   17   14    0    2    1    0.000007    0.000000
   17   14    0    1    2   -0.000000   -0.000000
   17   14    0    2    2    0.000001   -0.000000
   17   15    0    1    1   -0.000001    0.000000
   17   15    0    2    1   -0.000004    0.000000
   17   15    0    1    2    0.000001    0.000000
   17   15    0    2    2   -0.000001   -0.000000
   17   16    0    1    1    0.000000    0.000000
   17   16    0    2    1    0.000003    0.000000
   17   16    0    1    2   -0.000002   -0.000000
   17   16    0    2    2    0.000000   -0.000000
   17   17    0    1    1   -0.000001   -0.000000
   17   17    0    2    1   -0.000002    0.000000
   17   17    0    1    2   -0.000002   -0.000000
   17   17    0    2    2   -0.000001    0.000000
   17   18    0    1    1    0.000002    0.000000
   17   18    0    2    1    0.000000   -0.000000
   17   18    0    1    2    0.000001    0.000000
   17   18    0    2    2    0.000002   -0.000000
   17   19    0    1    1   -0.000001    0.000000
   17   19    0    2    1   -0.000004    0.000000
   17   19    0    1    2   -0.000006    0.000000
   17   19    0    2    2   -0.000001   -0.000000
   18    0    0    1    1   -0.000001   -0.000000
   18    0    0    2    1    0.000001   -0.000000
   18    0    0    1    2    0.000001    0.000000
   18    0    0    2    2   -0.000001   -0.000000
   18    1    0    1    1    0.000002   -0.000000
   18    1    0    2    1    0.000003    0.000000
   18    1    0    1    2    0.000002   -0.000000
   18    1    0    2    2    0.000002    0.000000
   18    2    0    1    1   -0.000002   -0.000000
   18    2    0    2    1   -0.000005    0.000000
   18    2    0    1    2    0.000000   -0.000000
   18    2    0    2    2   -0.000002    0.000000
   18    3    0    1    1    0.000001   -0.000000
   18    3    0    2    1   -0.000013    0.000000
   18    3    0    1    2    0.000002   -0.000000
   18    3    0    2    2    0.000001   -0.000000
   18    4    0    1    1   -0.000001    0.000000
   18    4    0    2    1   -0.000011    0.000000
   18    4    0    1    2    0.000006    0.000000
   18    4    0    2    2   -0.000001    0.000000
   18    5    0    1    1    0.000000   -0.000000
   18    5    0    2    1    0.000009   -0.000000
   18    5    0    1    2    0.000012   -0.000000
   18    5    0    2    2    0.000000   -0.000000
   18    6    0    1    1   -0.000001   -0.000000
   18    6    0    2    1   -0.000005   -0.000000
   18    6    0    1    2    0.000007    0.000000
   18    6    0    2    2   -0.000001    0.000000
   18    7    0    1    1   -0.000004    0.000000
   18    7    0    2    1    0.000016   -0.000000
   18    7    0    1    2   -0.000005    0.000000
   18    7    0    2    2   -0.000004   -0.000000
   18    8    0    1    1   -0.000001   -0.000000
   18    8    0    2    1    0.000011   -0.000000
   18    8    0    1    2    0.000004    0.000000
   18    8    0    2    2   -0.000001    0.000000
   18    9    0    1    1   -0.000004   -0.000000
   18    9    0    2    1    0.000011   -0.000000
   18    9    0    1    2   -0.000004    0.000000
   18    9    0    2    2   -0.000004    0.000000
   18   10    0    1    1   -0.000001   -0.000000
   18   10    0    2    1    0.000016   -0.000000
   18   10    0    1    2   -0.000004    0.000000
   18   10    0    2    2   -0.000001    0.000000
   18   11    0    1    1   -0.000004   -0.000000
   18   11    0    2    1   -0.000005   -0.000000
   18   11    0    1    2    0.000004    0.000000
   18   11    0    2    2   -0.000004    0.000000
   18   12    0    1    1   -0.000001    0.000000
   18   12    0    2    1    0.000009   -0.000000
   18   12    0    1    2   -0.000005    0.000000
   18   12    0    2    2   -0.000001   -0.000000
   18   13    0    1    1    0.000000   -0.000000
   18   13    0    2    1   -0.000011    0.000000
   18   13    0    1    2    0.000007    0.000000
   18   13    0    2    2    0.000000   -0.000000
   18   14    0    1    1   -0.000001   -0.000000
   18   14    0    2    1   -0.000013   -0.000000
   18   14    0    1    2    0.000012   -0.000000
   18   14    0    2    2   -0.000001    0.000000
   18   15    0    1    1    0.000001    0.000000
   18   15    0    2    1   -0.000005    0.000000
   18   15    0    1    2    0.000006   -0.000000
   18   15    0    2    2    0.000001   -0.000000
   18   16    0    1    1   -0.000002    0.000000
   18   16    0    2    1    0.000003    0.000000
   18   16    0    1    2    0.000002   -0.000000
   18   16    0    2    2   -0.000002   -0.000000
   18   17    0    1    1    0.000002    0.000000
   18   17    0    2    1    0.000001    0.000000
   18   17    0    1    2    0.000000   -0.000000
   18   17    0    2    2    0.000002    0.000000
   18   18    0    1    1   -0.000001    0.000000
   18   18    0    2    1    0.000002   -0.000000
   18   18    0    1    2    0.000002    0.000000
   18   18    0    2    2   -0.000001    0.000000
   19    2    0    1    1   -0.000001    0.000000
   19    2    0    2    1    0.000007   -0.000000
   19    2    0    1    2    0.000000   -0.000000
   19    2    0    2    2   -0.000001   -0.000000
   19    3    0    1    1    0.000003    0.000000
   19    3    0    2    1    0.000007   -0.000000
   19    3    0    1    2   -0.000004    0.000000
   19    3    0    2    2    0.000003   -0.000000
   19    4    0    1    1    0.000000   -0.000000
   19    4    0    2    1    0.000008   -0.000000
   19    4    0    1    2    0.000000    0.000000
   19    4    0    2    2    0.000000    0.000000
   19    5    0    1    1    0.000002   -0.000000
   19    5    0    2    1   -0.000005   -0.000000
   19    5    0    1    2   -0.000019    0.000000
   19    5    0    2    2    0.000002    0.000000
   19    6    0    1    1   -0.000001    0.000000
   19    6    0    2    1    0.000001   -0.000000
   19    6    0    1    2    0.000000    0.000000
   19    6    0    2    2   -0.000001   -0.000000
   19    7    0    1    1    0.000003    0.000000
   19    7    0    2    1   -0.000011    0.000000
   19    7    0    1    2   -0.000001    0.000000
   19    7    0    2    2    0.000003   -0.000000
   19    8    0    1    1   -0.000001    0.000000
   19    8    0    2    1   -0.000009   -0.000000
   19    8    0    1    2   -0.000002   -0.000000
   19    8    0    2    2   -0.000001    0.000000
   19    9    0    1    1    0.000002   -0.000000
   19    9    0    2    1   -0.000012   -0.000000
   19    9    0    1    2    0.000012   -0.000000
   19    9    0    2    2    0.000002    0.000000
   19   10    0    1    1    0.000002   -0.000000
   19   10    0    2    1   -0.000009   -0.000000
   19   10    0    1    2   -0.000004    0.000000
   19   10    0    2    2    0.000002    0.000000
   19   11    0    1    1   -0.000001   -0.000000
   19   11    0    2    1   -0.000011   -0.000000
   19   11    0    1    2    0.000012    0.000000
   19   11    0    2    2   -0.000001    0.000000
   19   12    0    1    1    0.000003   -0.000000
   19   12    0    2    1    0.000001   -0.000000
   19   12    0    1    2   -0.000002   -0.000000
   19   12    0    2    2    0.000003    0.000000
   19   13    0    1    1   -0.000001   -0.000000
   19   13    0    2    1   -0.000005    0.000000
   19   13    0    1    2   -0.000001   -0.000000
   19   13    0    2    2   -0.000001    0.000000
   19   14    0    1    1    0.000002   -0.000000
   19   14    0    2    1    0.000008    0.000000
   19   14    0    1    2    0.000000   -0.000000
   19   14    0    2    2    0.000002    0.000000
   19   15    0    1    1    0.000000   -0.000000
   19   15    0    2    1    0.000007    0.000000
   19   15    0    1    2   -0.000019   -0.000000
   19   15    0    2    2    0.000000    0.000000
   19   16    0    1    1    0.000003    0.000000
   19   16    0    2    1    0.000007    0.000000
   19   16    0    1    2    0.000000   -0.000000
   19   16    0    2    2    0.000003    0.000000
   20    4    0    1    1   -0.000007    0.000000
   20    4    0    2    1    0.000000   -0.000000
   20    4    0    1    2    0.000000    0.000000
   20    4    0    2    2   -0.000007   -0.000000
   20    5    0    1    1    0.000001   -0.000000
   20    5    0    2    1    0.000003   -0.000000
   20    5    0    1    2    0.000012   -0.000000
   20    5    0    2    2    0.000001    0.000000
   20    6    0    1    1   -0.000002   -0.000000
   20    6    0    2    1   -0.000001   -0.000000
   20    6    0    1    2    0.000005    0.000000
   20    6    0    2    2   -0.000002    0.000000
   20    7    0    1    1    0.000002    0.000000
   20    7    0    2    1    0.000011    0.000000
   20    7    0    1    2   -0.000005    0.000000
   20    7    0    2    2    0.000002   -0.000000
   20    8    0    1    1    0.000000    0.000000
   20    8    0    2    1    0.000002    0.000000
   20    8    0    1    2    0.000007    0.000000
   20    8    0    2    2    0.000000   -0.000000
   20    9    0    1    1   -0.000001    0.000000
   20    9    0    2    1    0.000008    0.000000
   20    9    0    1    2   -0.000010   -0.000000
   20    9    0    2    2   -0.000001   -0.000000
   20   10    0    1    1   -0.000001    0.000000
   20   10    0    2    1    0.000008   -0.000000
   20   10    0    1    2   -0.000002   -0.000000
   20   10    0    2    2   -0.000001   -0.000000
   20   11    0    1    1   -0.000001   -0.000000
   20   11    0    2    1    0.000002   -0.000000
   20   11    0    1    2   -0.000002    0.000000
   20   11    0    2    2   -0.000001    0.000000
   20   12    0    1    1    0.000000   -0.000000
   20   12    0    2    1    0.000011    0.000000
   20   12    0    1    2   -0.000010   -0.000000
   20   12    0    2    2    0.000000   -0.000000
   20   13    0    1    1    0.000002   -0.000000
   20   13    0    2    1   -0.000001    0.000000
   20   13    0    1    2    0.000007   -0.000000
   20   13    0    2    2    0.000002    0.000000
   20   14    0    1    1   -0.000002   -0.000000
   20   14    0    2    1    0.000003    0.000000
   20   14    0    1    2   -0.000005   -0.000000
   20   14    0    2    2   -0.000002    0.000000
   20   15    0    1    1    0.000001   -0.000000
   20   15    0    2    1    0.000000    0.000000
   20   15    0    1    2    0.000005   -0.000000
   20   15    0    2    2    0.000001   -0.000000
   21    6    0    1    1   -0.000002   -0.000000
   21    6    0    2    1    0.000004   -0.000000
   21    6    0    1    2    0.000005   -0.000000
   21    6    0    2    2   -0.000002    0.000000
   21    7    0    1    1    0.000003   -0.000000
   21    7    0    2    1   -0.000009   -0.000000
   21    7    0    1    2   -0.000006    0.000000
   21    7    0    2    2    0.000003    0.000000
   21    8    0    1    1   -0.000002    0.000000
   21    8    0    2    1   -0.000001   -0.000000
   21    8    0    1    2    0.000005    0.000000
   21    8    0    2    2   -0.000002   -0.000000
   21    9    0    1    1    0.000003    0.000000
   21    9    0    2    1   -0.000006    0.000000
   21    9    0    1    2    0.000002    0.000000
   21    9    0    2    2    0.000003   -0.000000
   21   10    0    1    1    0.000001    0.000000
   21   10    0    2    1   -0.000003    0.000000
   21   10    0    1    2    0.000004   -0.000000
   21   10    0    2    2    0.000001   -0.000000
   21   11    0    1    1    0.000001   -0.000000
   21   11    0    2    1   -0.000006    0.000000
   21   11    0    1    2    0.000003   -0.000000
   21   11    0    2    2    0.000001    0.000000
   21   12    0    1    1    0.000003    0.000000
   21   12    0    2    1   -0.000001    0.000000
   21   12    0    1    2    0.000004    0.000000
   21   12    0    2    2    0.000003   -0.000000
   21   13    0    1    1   -0.000002    0.000000
   21   13    0    2    1   -0.000009    0.000000
   21   13    0    1    2    0.000002    0.000000
   21   13    0    2    2   -0.000002    0.000000
   21   14    0    1    1    0.000003   -0.000000
   21   14    0    2    1    0.000004    0.000000
   21   14    0    1    2    0.000005    0.000000
   21   14    0    2    2    0.000003    0.000000
   22    8    0    1    1   -0.000002    0.000000
   22    8    0    2    1   -0.000000   -0.000000
   22    8    0    1    2    0.000005    0.000000
   22    8    0    2    2   -0.000002   -0.000000
   22    9    0    1    1    0.000001    0.000000
   22    9    0    2    1    0.000005    0.000000
   22    9    0    1    2   -0.000012    0.000000
   22    9    0    2    2    0.000001    0.000000
   22   10    0    1    1   -0.000005   -0.000000
   22   10    0    2    1    0.000003    0.000000
   22   10    0    1    2    0.000004   -0.000000
   22   10    0    2    2   -0.000005    0.000000
   22   11    0    1    1    0.000002   -0.000000
   22   11    0    2    1    0.000003    0.000000
   22   11    0    1    2   -0.000006   -0.000000
   22   11    0    2    2    0.000002   -0.000000
   22   12    0    1    1   -0.000005    0.000000
   22   12    0    2    1    0.000005   -0.000000
   22   12    0    1    2   -0.000006    0.000000
   22   12    0    2    2   -0.000005   -0.000000
   22   13    0    1    1    0.000001    0.000000
   22   13    0    2    1   -0.000000   -0.000000
   22   13    0    1    2    0.000004    0.000000
   22   13    0    2    2    0.000001   -0.000000
   23   10    0    1    1   -0.000001   -0.000000
   23   10    0    2    1   -0.000002    0.000000
   23   10    0    1    2    0.000004   -0.000000
   23   10    0    2    2   -0.000001    0.000000
   23   11    0    1    1    0.000003   -0.000000
   23   11    0    2    1    0.000002    0.000000
   23   11    0    1    2   -0.000001   -0.000000
   23   11    0    2    2    0.000003    0.000000
   23   12    0    1    1    0.000003   -0.000000
   23   12    0    2    1   -0.000002   -0.000000
   23   12    0    1    2    0.000005   -0.000000
   23   12    0    2    2    0.000003    0.000000
