 written on 25Jun2022 at 16:46:07 
           2
        1309
  -23  -12    0    1    1   -0.000001    0.000000    0.000003    0.000000   -0.011898   -0.065512
  -23  -12    0    2    1   -0.000013    0.000000   -0.000008   -0.000000    0.000000   -0.000000
  -23  -12    0    1    2    0.000019    0.000000    0.000013   -0.000000   -0.000000    0.000000
  -23  -12    0    2    2    0.000001    0.000000   -0.000003    0.000000    0.060723   -0.232072
  -23  -11    0    1    1    0.000002    0.000000   -0.000002   -0.000000   -0.099706    0.047588
  -23  -11    0    2    1    0.000000    0.000000   -0.000008    0.000000   -0.000000   -0.000000
  -23  -11    0    1    2    0.000001    0.000000    0.000001    0.000000    0.000000    0.000000
  -23  -11    0    2    2   -0.000002   -0.000000    0.000002   -0.000000   -0.043012    0.057698
  -23  -10    0    1    1    0.000000   -0.000000    0.000005    0.000000    0.024873    0.050557
  -23  -10    0    2    1   -0.000004    0.000000   -0.000003    0.000000   -0.000000    0.000000
  -23  -10    0    1    2    0.000021    0.000000    0.000010    0.000000   -0.000000   -0.000000
  -23  -10    0    2    2   -0.000000   -0.000000   -0.000005    0.000000    0.103373   -0.195355
  -22  -13    0    1    1   -0.000003    0.000000    0.000002    0.000000    0.066181   -0.067530
  -22  -13    0    2    1   -0.000001   -0.000000    0.000006   -0.000000    0.000000   -0.000000
  -22  -13    0    1    2    0.000005    0.000000   -0.000006   -0.000000   -0.000000    0.000000
  -22  -13    0    2    2    0.000003    0.000000   -0.000002   -0.000000   -0.150019   -0.010952
  -22  -12    0    1    1    0.000001   -0.000000   -0.000001   -0.000000    0.030413   -0.062091
  -22  -12    0    2    1    0.000017   -0.000000   -0.000014   -0.000000   -0.000000    0.000000
  -22  -12    0    1    2   -0.000003    0.000000   -0.000004   -0.000000    0.000000    0.000000
  -22  -12    0    2    2   -0.000001   -0.000000    0.000001    0.000000   -0.098283    0.270389
  -22  -11    0    1    1   -0.000003    0.000000   -0.000002    0.000000   -0.147925    0.114609
  -22  -11    0    2    1   -0.000003    0.000000    0.000023   -0.000000    0.000000   -0.000000
  -22  -11    0    1    2   -0.000003   -0.000000   -0.000012    0.000000    0.000000    0.000000
  -22  -11    0    2    2    0.000003    0.000000    0.000002    0.000000   -0.046415   -0.230816
  -22  -10    0    1    1   -0.000000    0.000000    0.000001   -0.000000    0.066795   -0.163041
  -22  -10    0    2    1    0.000004    0.000000   -0.000003    0.000000   -0.000000    0.000000
  -22  -10    0    1    2   -0.000012   -0.000000    0.000003    0.000000    0.000000   -0.000000
  -22  -10    0    2    2    0.000000   -0.000000   -0.000001    0.000000    0.209327    0.004816
  -22   -9    0    1    1   -0.000000    0.000000   -0.000004   -0.000000   -0.045254   -0.393306
  -22   -9    0    2    1   -0.000000    0.000000    0.000015   -0.000000   -0.000000    0.000000
  -22   -9    0    1    2   -0.000006   -0.000000   -0.000001   -0.000000   -0.000000   -0.000000
  -22   -9    0    2    2    0.000000    0.000000    0.000004    0.000000   -0.208807    0.025293
  -22   -8    0    1    1    0.000000   -0.000000    0.000005    0.000000   -0.140136    0.040574
  -22   -8    0    2    1   -0.000013    0.000000   -0.000003   -0.000000    0.000000    0.000000
  -22   -8    0    1    2   -0.000003   -0.000000    0.000008   -0.000000   -0.000000    0.000000
  -22   -8    0    2    2   -0.000000   -0.000000   -0.000005   -0.000000    0.018326    0.130142
  -21  -14    0    1    1   -0.000003    0.000000    0.000002    0.000000    0.401455    0.084093
  -21  -14    0    2    1    0.000004    0.000000    0.000014   -0.000000   -0.000000   -0.000000
  -21  -14    0    1    2    0.000002   -0.000000   -0.000009    0.000000   -0.000000   -0.000000
  -21  -14    0    2    2    0.000003    0.000000   -0.000002   -0.000000   -0.149846    0.101291
  -21  -13    0    1    1    0.000001    0.000000   -0.000001   -0.000000    0.334676    0.033282
  -21  -13    0    2    1   -0.000011   -0.000000   -0.000005   -0.000000   -0.000000   -0.000000
  -21  -13    0    1    2   -0.000011    0.000000    0.000003    0.000000   -0.000000   -0.000000
  -21  -13    0    2    2   -0.000001   -0.000000    0.000001    0.000000   -0.066823   -0.128487
  -21  -12    0    1    1    0.000000   -0.000000    0.000000   -0.000000    0.236299   -0.199989
  -21  -12    0    2    1    0.000002    0.000000    0.000007   -0.000000   -0.000000   -0.000000
  -21  -12    0    1    2    0.000011    0.000000    0.000008    0.000000   -0.000000    0.000000
  -21  -12    0    2    2   -0.000000    0.000000   -0.000000   -0.000000   -0.042918   -0.107674
  -21  -11    0    1    1    0.000002    0.000000   -0.000001   -0.000000   -0.589883    0.114884
  -21  -11    0    2    1   -0.000022    0.000000   -0.000014   -0.000000   -0.000000    0.000000
  -21  -11    0    1    2   -0.000015    0.000000    0.000008   -0.000000    0.000000    0.000000
  -21  -11    0    2    2   -0.000002    0.000000    0.000001    0.000000    0.099833   -0.198001
  -21  -10    0    1    1    0.000001    0.000000    0.000002    0.000000    0.011466    0.192388
  -21  -10    0    2    1    0.000006    0.000000   -0.000002    0.000000   -0.000000    0.000000
  -21  -10    0    1    2    0.000023   -0.000000    0.000014    0.000000    0.000000    0.000000
  -21  -10    0    2    2   -0.000001    0.000000   -0.000002    0.000000   -0.001711   -0.184277
  -21   -9    0    1    1    0.000000    0.000000   -0.000000    0.000000    0.026249   -0.333986
  -21   -9    0    2    1   -0.000009    0.000000   -0.000008   -0.000000    0.000000    0.000000
  -21   -9    0    1    2   -0.000001   -0.000000   -0.000017   -0.000000   -0.000000   -0.000000
  -21   -9    0    2    2   -0.000000   -0.000000    0.000000   -0.000000    0.347554    0.202408
  -21   -8    0    1    1    0.000000    0.000000    0.000001   -0.000000    0.072775   -0.080480
  -21   -8    0    2    1    0.000013    0.000000   -0.000003    0.000000   -0.000000    0.000000
  -21   -8    0    1    2    0.000013    0.000000    0.000006   -0.000000   -0.000000    0.000000
  -21   -8    0    2    2   -0.000000    0.000000   -0.000001   -0.000000   -0.094937    0.003861
  -21   -7    0    1    1   -0.000000    0.000000   -0.000004   -0.000000   -0.074325   -0.270063
  -21   -7    0    2    1    0.000000    0.000000    0.000009   -0.000000   -0.000000    0.000000
  -21   -7    0    1    2   -0.000003   -0.000000   -0.000011   -0.000000    0.000000    0.000000
  -21   -7    0    2    2    0.000000   -0.000000    0.000004   -0.000000   -0.111400    0.121101
  -21   -6    0    1    1    0.000000    0.000000    0.000003   -0.000000   -0.058627    0.116423
  -21   -6    0    2    1    0.000008    0.000000   -0.000002    0.000000   -0.000000   -0.000000
  -21   -6    0    1    2   -0.000007    0.000000    0.000006    0.000000    0.000000    0.000000
  -21   -6    0    2    2   -0.000000    0.000000   -0.000003   -0.000000   -0.325993   -0.219630
  -20  -15    0    1    1   -0.000004    0.000000    0.000002   -0.000000    0.158290    0.235101
  -20  -15    0    2    1   -0.000006    0.000000   -0.000006    0.000000   -0.000000   -0.000000
  -20  -15    0    1    2    0.000010   -0.000000    0.000010   -0.000000    0.000000   -0.000000
  -20  -15    0    2    2    0.000004   -0.000000   -0.000002    0.000000    0.243699   -0.247606
  -20  -14    0    1    1    0.000001    0.000000   -0.000001   -0.000000    0.060118    0.036409
  -20  -14    0    2    1   -0.000004    0.000000    0.000004    0.000000   -0.000000   -0.000000
  -20  -14    0    1    2   -0.000003    0.000000    0.000004   -0.000000   -0.000000   -0.000000
  -20  -14    0    2    2   -0.000001   -0.000000    0.000001    0.000000    0.167406   -0.188040
  -20  -13    0    1    1   -0.000004    0.000000    0.000004   -0.000000    0.041294   -0.067867
  -20  -13    0    2    1   -0.000005   -0.000000   -0.000006   -0.000000    0.000000   -0.000000
  -20  -13    0    1    2    0.000012   -0.000000    0.000009   -0.000000    0.000000   -0.000000
  -20  -13    0    2    2    0.000004   -0.000000   -0.000004    0.000000    0.119636    0.031350
  -20  -12    0    1    1    0.000002   -0.000000   -0.000003    0.000000   -0.078607   -0.079772
  -20  -12    0    2    1    0.000010   -0.000000   -0.000006   -0.000000    0.000000   -0.000000
  -20  -12    0    1    2   -0.000006   -0.000000   -0.000013   -0.000000    0.000000    0.000000
  -20  -12    0    2    2   -0.000002    0.000000    0.000003   -0.000000    0.106317   -0.090744
  -20  -11    0    1    1   -0.000001    0.000000    0.000001    0.000000    0.375574   -0.235891
  -20  -11    0    2    1    0.000002   -0.000000    0.000010   -0.000000   -0.000000    0.000000
  -20  -11    0    1    2   -0.000006    0.000000   -0.000005    0.000000   -0.000000   -0.000000
  -20  -11    0    2    2    0.000001    0.000000   -0.000001   -0.000000    0.236212    0.081361
  -20  -10    0    1    1   -0.000002    0.000000   -0.000001   -0.000000    0.129147   -0.060570
  -20  -10    0    2    1    0.000009    0.000000   -0.000003   -0.000000   -0.000000    0.000000
  -20  -10    0    1    2   -0.000008    0.000000   -0.000011    0.000000    0.000000   -0.000000
  -20  -10    0    2    2    0.000002    0.000000    0.000001    0.000000   -0.175256   -0.235954
  -20   -9    0    1    1    0.000000    0.000000   -0.000002   -0.000000    0.163021    0.121744
  -20   -9    0    2    1    0.000000    0.000000    0.000013    0.000000    0.000000   -0.000000
  -20   -9    0    1    2   -0.000014    0.000000   -0.000002   -0.000000    0.000000   -0.000000
  -20   -9    0    2    2   -0.000000    0.000000    0.000002    0.000000    0.106336    0.253955
  -20   -8    0    1    1   -0.000001   -0.000000    0.000003   -0.000000   -0.049043   -0.165939
  -20   -8    0    2    1   -0.000007    0.000000   -0.000001    0.000000   -0.000000   -0.000000
  -20   -8    0    1    2   -0.000007    0.000000   -0.000003    0.000000    0.000000   -0.000000
  -20   -8    0    2    2    0.000001   -0.000000   -0.000003    0.000000   -0.028548   -0.203780
  -20   -7    0    1    1    0.000002    0.000000   -0.000005   -0.000000   -0.216961   -0.001287
  -20   -7    0    2    1    0.000001    0.000000   -0.000007   -0.000000   -0.000000    0.000000
  -20   -7    0    1    2   -0.000015   -0.000000    0.000001   -0.000000   -0.000000    0.000000
  -20   -7    0    2    2   -0.000002   -0.000000    0.000005    0.000000    0.277082    0.188404
  -20   -6    0    1    1   -0.000000   -0.000000    0.000002    0.000000    0.333893    0.121857
  -20   -6    0    2    1   -0.000008    0.000000   -0.000002    0.000000   -0.000000    0.000000
  -20   -6    0    1    2    0.000014    0.000000    0.000006    0.000000   -0.000000   -0.000000
  -20   -6    0    2    2    0.000000   -0.000000   -0.000002    0.000000   -0.321704   -0.031032
  -20   -5    0    1    1   -0.000000    0.000000   -0.000005   -0.000000   -0.039500   -0.157313
  -20   -5    0    2    1    0.000000   -0.000000   -0.000008   -0.000000   -0.000000   -0.000000
  -20   -5    0    1    2    0.000002   -0.000000   -0.000005    0.000000    0.000000   -0.000000
  -20   -5    0    2    2    0.000000   -0.000000    0.000005    0.000000   -0.091984    0.281801
  -20   -4    0    1    1   -0.000000    0.000000   -0.000002    0.000000    0.274276    0.100605
  -20   -4    0    2    1    0.000013   -0.000000   -0.000001   -0.000000    0.000000    0.000000
  -20   -4    0    1    2    0.000014   -0.000000    0.000004    0.000000    0.000000   -0.000000
  -20   -4    0    2    2    0.000000   -0.000000    0.000002    0.000000   -0.092665   -0.027450
  -19  -16    0    1    1   -0.000007    0.000000    0.000005   -0.000000   -0.271718    0.214852
  -19  -16    0    2    1   -0.000007   -0.000000   -0.000011   -0.000000   -0.000000    0.000000
  -19  -16    0    1    2    0.000015    0.000000    0.000010    0.000000    0.000000    0.000000
  -19  -16    0    2    2    0.000007    0.000000   -0.000005   -0.000000    0.291481   -0.213073
  -19  -15    0    1    1    0.000010    0.000000   -0.000006    0.000000   -0.203918    0.198414
  -19  -15    0    2    1    0.000006    0.000000   -0.000010    0.000000   -0.000000    0.000000
  -19  -15    0    1    2   -0.000013   -0.000000   -0.000020   -0.000000    0.000000    0.000000
  -19  -15    0    2    2   -0.000010   -0.000000    0.000006    0.000000   -0.088215   -0.314587
  -19  -14    0    1    1   -0.000002   -0.000000    0.000001    0.000000   -0.093769   -0.004413
  -19  -14    0    2    1    0.000000    0.000000    0.000010    0.000000    0.000000    0.000000
  -19  -14    0    1    2   -0.000005    0.000000   -0.000001   -0.000000    0.000000   -0.000000
  -19  -14    0    2    2    0.000002   -0.000000   -0.000001    0.000000    0.016916    0.027785
  -19  -13    0    1    1    0.000005    0.000000   -0.000004   -0.000000    0.068252   -0.035037
  -19  -13    0    2    1    0.000005   -0.000000   -0.000009   -0.000000    0.000000   -0.000000
  -19  -13    0    1    2   -0.000009   -0.000000   -0.000006   -0.000000    0.000000   -0.000000
  -19  -13    0    2    2   -0.000005   -0.000000    0.000004    0.000000    0.094917    0.047131
  -19  -12    0    1    1    0.000003   -0.000000   -0.000004    0.000000   -0.432665   -0.153639
  -19  -12    0    2    1    0.000005   -0.000000    0.000019    0.000000    0.000000   -0.000000
  -19  -12    0    1    2   -0.000006    0.000000    0.000004    0.000000    0.000000    0.000000
  -19  -12    0    2    2   -0.000003    0.000000    0.000004   -0.000000    0.051637   -0.022775
  -19  -11    0    1    1   -0.000001   -0.000000    0.000003    0.000000   -0.265852   -0.132573
  -19  -11    0    2    1   -0.000012   -0.000000   -0.000005    0.000000   -0.000000    0.000000
  -19  -11    0    1    2   -0.000003   -0.000000    0.000009   -0.000000    0.000000    0.000000
  -19  -11    0    2    2    0.000001   -0.000000   -0.000003   -0.000000    0.286529    0.042041
  -19  -10    0    1    1    0.000003   -0.000000   -0.000002    0.000000    0.106425   -0.057142
  -19  -10    0    2    1    0.000006    0.000000    0.000004    0.000000   -0.000000    0.000000
  -19  -10    0    1    2    0.000012   -0.000000    0.000005   -0.000000    0.000000   -0.000000
  -19  -10    0    2    2   -0.000003   -0.000000    0.000002    0.000000   -0.039549   -0.038112
  -19   -9    0    1    1   -0.000001    0.000000    0.000003   -0.000000   -0.000276   -0.156888
  -19   -9    0    2    1   -0.000010   -0.000000   -0.000008   -0.000000   -0.000000    0.000000
  -19   -9    0    1    2    0.000009    0.000000    0.000005    0.000000    0.000000    0.000000
  -19   -9    0    2    2    0.000001    0.000000   -0.000003   -0.000000    0.059113   -0.018770
  -19   -8    0    1    1    0.000002   -0.000000   -0.000002    0.000000   -0.102218    0.355014
  -19   -8    0    2    1    0.000018   -0.000000   -0.000005   -0.000000   -0.000000   -0.000000
  -19   -8    0    1    2    0.000010   -0.000000    0.000008   -0.000000    0.000000   -0.000000
  -19   -8    0    2    2   -0.000002    0.000000    0.000002   -0.000000    0.240810   -0.322676
  -19   -7    0    1    1   -0.000002   -0.000000    0.000005    0.000000    0.055123    0.232779
  -19   -7    0    2    1   -0.000005    0.000000    0.000009    0.000000   -0.000000   -0.000000
  -19   -7    0    1    2    0.000006    0.000000   -0.000007    0.000000   -0.000000    0.000000
  -19   -7    0    2    2    0.000002   -0.000000   -0.000005    0.000000    0.234106    0.154708
  -19   -6    0    1    1   -0.000001    0.000000    0.000007    0.000000   -0.433504    0.061154
  -19   -6    0    2    1    0.000008   -0.000000   -0.000005    0.000000   -0.000000    0.000000
  -19   -6    0    1    2    0.000000    0.000000   -0.000007    0.000000   -0.000000    0.000000
  -19   -6    0    2    2    0.000001   -0.000000   -0.000007    0.000000   -0.062439   -0.096993
  -19   -5    0    1    1    0.000000   -0.000000   -0.000003    0.000000   -0.096253   -0.091637
  -19   -5    0    2    1   -0.000005    0.000000    0.000011   -0.000000    0.000000    0.000000
  -19   -5    0    1    2   -0.000010   -0.000000   -0.000005   -0.000000    0.000000   -0.000000
  -19   -5    0    2    2   -0.000000   -0.000000    0.000003    0.000000   -0.386900    0.050590
  -19   -4    0    1    1   -0.000001    0.000000    0.000012   -0.000000   -0.359322   -0.071910
  -19   -4    0    2    1   -0.000013   -0.000000   -0.000001   -0.000000    0.000000    0.000000
  -19   -4    0    1    2   -0.000004    0.000000   -0.000004    0.000000    0.000000   -0.000000
  -19   -4    0    2    2    0.000001   -0.000000   -0.000012    0.000000   -0.099081    0.375216
  -19   -3    0    1    1    0.000001    0.000000   -0.000008   -0.000000   -0.049161    0.172368
  -19   -3    0    2    1   -0.000000    0.000000   -0.000017    0.000000   -0.000000    0.000000
  -19   -3    0    1    2   -0.000023   -0.000000   -0.000002    0.000000   -0.000000   -0.000000
  -19   -3    0    2    2   -0.000001    0.000000    0.000008   -0.000000   -0.064890   -0.350244
  -19   -2    0    1    1    0.000000   -0.000000   -0.000007    0.000000   -0.128007   -0.186365
  -19   -2    0    2    1    0.000012   -0.000000   -0.000001    0.000000   -0.000000    0.000000
  -19   -2    0    1    2    0.000016    0.000000    0.000008    0.000000   -0.000000    0.000000
  -19   -2    0    2    2   -0.000000   -0.000000    0.000007    0.000000    0.062494    0.120355
  -18  -18    0    1    1   -0.000006   -0.000000    0.000004    0.000000    0.439815   -0.000000
  -18  -18    0    2    1   -0.000004    0.000000    0.000002    0.000000   -0.000000    0.000000
  -18  -18    0    1    2    0.000004   -0.000000   -0.000002    0.000000   -0.000000   -0.000000
  -18  -18    0    2    2    0.000006    0.000000   -0.000004    0.000000   -0.061728   -0.000000
  -18  -17    0    1    1   -0.000005   -0.000000    0.000003    0.000000    0.272152    0.086208
  -18  -17    0    2    1   -0.000007   -0.000000   -0.000010   -0.000000   -0.000000    0.000000
  -18  -17    0    1    2    0.000008    0.000000    0.000005    0.000000    0.000000   -0.000000
  -18  -17    0    2    2    0.000005   -0.000000   -0.000003    0.000000   -0.057631   -0.327721
  -18  -16    0    1    1    0.000014    0.000000   -0.000008   -0.000000    0.020128   -0.189621
  -18  -16    0    2    1    0.000017    0.000000    0.000001    0.000000   -0.000000   -0.000000
  -18  -16    0    1    2   -0.000011   -0.000000   -0.000013    0.000000    0.000000   -0.000000
  -18  -16    0    2    2   -0.000014    0.000000    0.000008   -0.000000   -0.091451    0.048884
  -18  -15    0    1    1    0.000001    0.000000   -0.000001   -0.000000   -0.249313    0.222934
  -18  -15    0    2    1    0.000008   -0.000000    0.000025   -0.000000   -0.000000    0.000000
  -18  -15    0    1    2   -0.000006   -0.000000    0.000003    0.000000    0.000000    0.000000
  -18  -15    0    2    2   -0.000001   -0.000000    0.000001    0.000000    0.042918    0.098444
  -18  -14    0    1    1   -0.000002   -0.000000    0.000002    0.000000   -0.302919    0.030246
  -18  -14    0    2    1   -0.000010    0.000000   -0.000009    0.000000    0.000000   -0.000000
  -18  -14    0    1    2    0.000000   -0.000000    0.000004   -0.000000   -0.000000    0.000000
  -18  -14    0    2    2    0.000002    0.000000   -0.000002   -0.000000    0.180532    0.059815
  -18  -13    0    1    1    0.000002    0.000000   -0.000001    0.000000   -0.268989    0.066870
  -18  -13    0    2    1    0.000010   -0.000000   -0.000002   -0.000000    0.000000   -0.000000
  -18  -13    0    1    2    0.000019    0.000000    0.000015   -0.000000   -0.000000   -0.000000
  -18  -13    0    2    2   -0.000002   -0.000000    0.000001    0.000000    0.085790   -0.042041
  -18  -12    0    1    1   -0.000002   -0.000000    0.000002    0.000000   -0.088735    0.006682
  -18  -12    0    2    1   -0.000010    0.000000   -0.000008    0.000000    0.000000   -0.000000
  -18  -12    0    1    2   -0.000002    0.000000   -0.000007   -0.000000    0.000000    0.000000
  -18  -12    0    2    2    0.000002    0.000000   -0.000002   -0.000000    0.177469    0.360844
  -18  -11    0    1    1   -0.000003    0.000000    0.000003   -0.000000   -0.027865   -0.353290
  -18  -11    0    2    1    0.000007    0.000000    0.000001    0.000000   -0.000000    0.000000
  -18  -11    0    1    2    0.000020    0.000000    0.000005    0.000000    0.000000    0.000000
  -18  -11    0    2    2    0.000003   -0.000000   -0.000003   -0.000000   -0.091847    0.069753
  -18  -10    0    1    1   -0.000003    0.000000    0.000001   -0.000000    0.030690    0.039509
  -18  -10    0    2    1    0.000004   -0.000000    0.000001   -0.000000   -0.000000   -0.000000
  -18  -10    0    1    2   -0.000004    0.000000   -0.000016   -0.000000    0.000000   -0.000000
  -18  -10    0    2    2    0.000003   -0.000000   -0.000001    0.000000    0.048916    0.033281
  -18   -9    0    1    1   -0.000001    0.000000   -0.000000    0.000000    0.007716   -0.200617
  -18   -9    0    2    1    0.000002    0.000000    0.000004   -0.000000   -0.000000   -0.000000
  -18   -9    0    1    2    0.000000   -0.000000   -0.000001    0.000000   -0.000000    0.000000
  -18   -9    0    2    2    0.000001   -0.000000    0.000000    0.000000    0.123457   -0.231482
  -18   -8    0    1    1   -0.000000    0.000000   -0.000003   -0.000000    0.027456    0.120410
  -18   -8    0    2    1    0.000004   -0.000000    0.000007    0.000000    0.000000   -0.000000
  -18   -8    0    1    2   -0.000000   -0.000000    0.000001    0.000000    0.000000   -0.000000
  -18   -8    0    2    2    0.000000   -0.000000    0.000003    0.000000   -0.089246   -0.145800
  -18   -7    0    1    1    0.000001   -0.000000   -0.000004   -0.000000    0.230857    0.141511
  -18   -7    0    2    1   -0.000012    0.000000   -0.000005   -0.000000   -0.000000    0.000000
  -18   -7    0    1    2   -0.000015    0.000000    0.000005   -0.000000   -0.000000    0.000000
  -18   -7    0    2    2   -0.000001    0.000000    0.000004   -0.000000    0.117372   -0.041073
  -18   -6    0    1    1    0.000000   -0.000000   -0.000003    0.000000    0.057870   -0.207151
  -18   -6    0    2    1    0.000004    0.000000    0.000010    0.000000    0.000000    0.000000
  -18   -6    0    1    2    0.000014    0.000000    0.000014    0.000000   -0.000000   -0.000000
  -18   -6    0    2    2   -0.000000    0.000000    0.000003    0.000000    0.123457   -0.160375
  -18   -5    0    1    1   -0.000000   -0.000000    0.000002   -0.000000    0.207327   -0.101141
  -18   -5    0    2    1   -0.000013   -0.000000   -0.000005   -0.000000    0.000000    0.000000
  -18   -5    0    1    2   -0.000007    0.000000    0.000001   -0.000000   -0.000000   -0.000000
  -18   -5    0    2    2    0.000000    0.000000   -0.000002    0.000000    0.092161    0.014464
  -18   -4    0    1    1    0.000000    0.000000   -0.000003   -0.000000   -0.140176    0.069468
  -18   -4    0    2    1    0.000025    0.000000   -0.000005   -0.000000    0.000000    0.000000
  -18   -4    0    1    2    0.000023    0.000000    0.000009   -0.000000    0.000000   -0.000000
  -18   -4    0    2    2   -0.000000   -0.000000    0.000003    0.000000   -0.212822   -0.234778
  -18   -3    0    1    1   -0.000000   -0.000000    0.000001   -0.000000    0.218448    0.062559
  -18   -3    0    2    1    0.000009   -0.000000    0.000015    0.000000    0.000000    0.000000
  -18   -3    0    1    2    0.000003    0.000000   -0.000002   -0.000000    0.000000   -0.000000
  -18   -3    0    2    2    0.000000   -0.000000   -0.000001   -0.000000   -0.050634   -0.075296
  -18   -2    0    1    1   -0.000000   -0.000000    0.000016   -0.000000   -0.074993    0.049356
  -18   -2    0    2    1   -0.000012    0.000000   -0.000001    0.000000   -0.000000   -0.000000
  -18   -2    0    1    2   -0.000001   -0.000000   -0.000006    0.000000   -0.000000   -0.000000
  -18   -2    0    2    2    0.000000   -0.000000   -0.000016    0.000000    0.094626   -0.106722
  -18   -1    0    1    1    0.000000   -0.000000   -0.000006   -0.000000    0.165221   -0.055383
  -18   -1    0    2    1   -0.000000    0.000000   -0.000005    0.000000   -0.000000   -0.000000
  -18   -1    0    1    2   -0.000016    0.000000   -0.000003   -0.000000    0.000000   -0.000000
  -18   -1    0    2    2   -0.000000   -0.000000    0.000006    0.000000   -0.122697    0.360829
  -18    0    0    1    1    0.000000    0.000000   -0.000007   -0.000000   -0.054012    0.000000
  -18    0    0    2    1   -0.000008    0.000000   -0.000004    0.000000    0.000000   -0.000000
  -18    0    0    1    2    0.000008    0.000000    0.000004   -0.000000    0.000000    0.000000
  -18    0    0    2    2    0.000000   -0.000000    0.000007   -0.000000    0.432099   -0.000000
  -17  -19    0    1    1   -0.000006   -0.000000    0.000004    0.000000    0.295553   -0.114353
  -17  -19    0    2    1    0.000004   -0.000000   -0.000002    0.000000   -0.000000    0.000000
  -17  -19    0    1    2    0.000013    0.000000   -0.000007    0.000000   -0.000000    0.000000
  -17  -19    0    2    2    0.000006    0.000000   -0.000004   -0.000000    0.106334    0.103866
  -17  -18    0    1    1   -0.000005   -0.000000    0.000003    0.000000    0.031040   -0.115929
  -17  -18    0    2    1    0.000000   -0.000000    0.000009   -0.000000    0.000000    0.000000
  -17  -18    0    1    2   -0.000005   -0.000000   -0.000011   -0.000000   -0.000000    0.000000
  -17  -18    0    2    2    0.000005    0.000000   -0.000003   -0.000000    0.142292    0.021876
  -17  -17    0    1    1    0.000013    0.000000   -0.000008   -0.000000   -0.257504   -0.079216
  -17  -17    0    2    1    0.000007   -0.000000   -0.000005    0.000000   -0.000000   -0.000000
  -17  -17    0    1    2   -0.000008   -0.000000    0.000004    0.000000    0.000000   -0.000000
  -17  -17    0    2    2   -0.000013   -0.000000    0.000008    0.000000   -0.113628   -0.266053
  -17  -16    0    1    1    0.000002    0.000000   -0.000001   -0.000000   -0.045175    0.189836
  -17  -16    0    2    1    0.000008   -0.000000    0.000018   -0.000000   -0.000000   -0.000000
  -17  -16    0    1    2   -0.000002    0.000000    0.000005   -0.000000    0.000000   -0.000000
  -17  -16    0    2    2   -0.000002   -0.000000    0.000001    0.000000   -0.198968    0.003668
  -17  -15    0    1    1   -0.000009    0.000000    0.000006   -0.000000    0.145057   -0.002921
  -17  -15    0    2    1   -0.000022   -0.000000   -0.000019   -0.000000    0.000000   -0.000000
  -17  -15    0    1    2    0.000005   -0.000000    0.000002   -0.000000   -0.000000    0.000000
  -17  -15    0    2    2    0.000009    0.000000   -0.000006   -0.000000   -0.131689    0.155351
  -17  -14    0    1    1   -0.000003   -0.000000    0.000002   -0.000000    0.127068   -0.286350
  -17  -14    0    2    1    0.000007   -0.000000   -0.000007    0.000000   -0.000000    0.000000
  -17  -14    0    1    2    0.000015   -0.000000    0.000004    0.000000   -0.000000    0.000000
  -17  -14    0    2    2    0.000003    0.000000   -0.000002   -0.000000   -0.095609    0.310859
  -17  -13    0    1    1    0.000001    0.000000   -0.000002    0.000000    0.206736    0.054611
  -17  -13    0    2    1    0.000004   -0.000000    0.000004    0.000000   -0.000000   -0.000000
  -17  -13    0    1    2   -0.000011   -0.000000   -0.000019   -0.000000   -0.000000   -0.000000
  -17  -13    0    2    2   -0.000001    0.000000    0.000002   -0.000000    0.041452   -0.358734
  -17  -12    0    1    1   -0.000001    0.000000    0.000001   -0.000000    0.158577    0.013510
  -17  -12    0    2    1   -0.000004    0.000000    0.000011    0.000000   -0.000000   -0.000000
  -17  -12    0    1    2   -0.000008    0.000000    0.000007   -0.000000   -0.000000    0.000000
  -17  -12    0    2    2    0.000001   -0.000000   -0.000001    0.000000   -0.009298    0.058948
  -17  -11    0    1    1   -0.000003   -0.000000    0.000003   -0.000000   -0.011983    0.202118
  -17  -11    0    2    1   -0.000006    0.000000   -0.000005   -0.000000   -0.000000   -0.000000
  -17  -11    0    1    2   -0.000004   -0.000000   -0.000005   -0.000000   -0.000000    0.000000
  -17  -11    0    2    2    0.000003    0.000000   -0.000003   -0.000000    0.104399    0.239318
  -17  -10    0    1    1    0.000007    0.000000   -0.000007   -0.000000   -0.081376   -0.127704
  -17  -10    0    2    1   -0.000002   -0.000000    0.000002    0.000000   -0.000000    0.000000
  -17  -10    0    1    2   -0.000012    0.000000    0.000001    0.000000   -0.000000    0.000000
  -17  -10    0    2    2   -0.000007   -0.000000    0.000007   -0.000000   -0.030606    0.122118
  -17   -9    0    1    1   -0.000002    0.000000    0.000005   -0.000000    0.070339   -0.093256
  -17   -9    0    2    1   -0.000011   -0.000000   -0.000007   -0.000000   -0.000000   -0.000000
  -17   -9    0    1    2    0.000001    0.000000    0.000009    0.000000   -0.000000   -0.000000
  -17   -9    0    2    2    0.000002    0.000000   -0.000005   -0.000000   -0.269502   -0.161834
  -17   -8    0    1    1    0.000003   -0.000000   -0.000004   -0.000000   -0.095046   -0.190209
  -17   -8    0    2    1    0.000000   -0.000000   -0.000003    0.000000   -0.000000   -0.000000
  -17   -8    0    1    2    0.000001   -0.000000    0.000001   -0.000000    0.000000   -0.000000
  -17   -8    0    2    2   -0.000003   -0.000000    0.000004    0.000000   -0.123322    0.072800
  -17   -7    0    1    1   -0.000003   -0.000000    0.000009   -0.000000   -0.105977    0.211266
  -17   -7    0    2    1   -0.000007   -0.000000   -0.000002   -0.000000    0.000000    0.000000
  -17   -7    0    1    2    0.000008   -0.000000   -0.000003    0.000000    0.000000   -0.000000
  -17   -7    0    2    2    0.000003    0.000000   -0.000009   -0.000000    0.233513    0.042765
  -17   -6    0    1    1    0.000001    0.000000   -0.000004    0.000000   -0.285923    0.100972
  -17   -6    0    2    1    0.000007   -0.000000   -0.000010   -0.000000    0.000000    0.000000
  -17   -6    0    1    2   -0.000005    0.000000   -0.000011    0.000000   -0.000000   -0.000000
  -17   -6    0    2    2   -0.000001   -0.000000    0.000004    0.000000    0.202462   -0.148614
  -17   -5    0    1    1    0.000000    0.000000   -0.000002   -0.000000    0.349314    0.391986
  -17   -5    0    2    1    0.000005   -0.000000    0.000002   -0.000000    0.000000    0.000000
  -17   -5    0    1    2   -0.000006    0.000000   -0.000001    0.000000   -0.000000   -0.000000
  -17   -5    0    2    2   -0.000000    0.000000    0.000002   -0.000000    0.283712    0.218850
  -17   -4    0    1    1   -0.000001    0.000000    0.000002   -0.000000   -0.209286   -0.186635
  -17   -4    0    2    1   -0.000002   -0.000000    0.000010    0.000000    0.000000    0.000000
  -17   -4    0    1    2    0.000002   -0.000000   -0.000010    0.000000   -0.000000   -0.000000
  -17   -4    0    2    2    0.000001    0.000000   -0.000002   -0.000000    0.480192   -0.092263
  -17   -3    0    1    1    0.000000    0.000000   -0.000003   -0.000000   -0.102773    0.359545
  -17   -3    0    2    1   -0.000028   -0.000000   -0.000010    0.000000    0.000000    0.000000
  -17   -3    0    1    2   -0.000022   -0.000000    0.000000   -0.000000    0.000000   -0.000000
  -17   -3    0    2    2   -0.000000    0.000000    0.000003   -0.000000   -0.169427    0.009409
  -17   -2    0    1    1    0.000000   -0.000000   -0.000010    0.000000    0.139542    0.275454
  -17   -2    0    2    1    0.000019   -0.000000   -0.000002    0.000000   -0.000000   -0.000000
  -17   -2    0    1    2    0.000011    0.000000    0.000011   -0.000000   -0.000000    0.000000
  -17   -2    0    2    2   -0.000000    0.000000    0.000010   -0.000000    0.381589    0.031625
  -17   -1    0    1    1   -0.000000    0.000000    0.000003    0.000000    0.076819    0.071456
  -17   -1    0    2    1   -0.000001    0.000000    0.000008   -0.000000   -0.000000   -0.000000
  -17   -1    0    1    2    0.000004    0.000000    0.000004   -0.000000    0.000000   -0.000000
  -17   -1    0    2    2    0.000000    0.000000   -0.000003   -0.000000   -0.220884   -0.004377
  -17    0    0    1    1   -0.000000    0.000000    0.000015    0.000000    0.119113   -0.197868
  -17    0    0    2    1    0.000008    0.000000   -0.000004    0.000000   -0.000000   -0.000000
  -17    0    0    1    2    0.000003   -0.000000   -0.000004   -0.000000    0.000000   -0.000000
  -17    0    0    2    2    0.000000    0.000000   -0.000015   -0.000000    0.279693    0.324175
  -17    1    0    1    1   -0.000000    0.000000   -0.000006   -0.000000    0.054736   -0.084634
  -17    1    0    2    1    0.000000   -0.000000    0.000004    0.000000    0.000000   -0.000000
  -17    1    0    1    2   -0.000001   -0.000000   -0.000009   -0.000000   -0.000000    0.000000
  -17    1    0    2    2    0.000000   -0.000000    0.000006    0.000000    0.082109   -0.146258
  -17    2    0    1    1   -0.000000    0.000000   -0.000007   -0.000000   -0.128007    0.186365
  -17    2    0    2    1   -0.000016    0.000000   -0.000007    0.000000   -0.000000   -0.000000
  -17    2    0    1    2   -0.000013   -0.000000    0.000001    0.000000   -0.000000   -0.000000
  -17    2    0    2    2    0.000000    0.000000    0.000007   -0.000000    0.062494   -0.120354
  -16  -20    0    1    1   -0.000002   -0.000000    0.000001    0.000000   -0.006531   -0.188533
  -16  -20    0    2    1    0.000005    0.000000   -0.000003   -0.000000   -0.000000   -0.000000
  -16  -20    0    1    2    0.000006   -0.000000   -0.000003    0.000000    0.000000    0.000000
  -16  -20    0    2    2    0.000002    0.000000   -0.000001   -0.000000    0.009047   -0.062839
  -16  -19    0    1    1   -0.000008    0.000000    0.000004   -0.000000    0.212951   -0.073280
  -16  -19    0    2    1    0.000001    0.000000    0.000018   -0.000000   -0.000000   -0.000000
  -16  -19    0    1    2   -0.000006    0.000000   -0.000012   -0.000000    0.000000   -0.000000
  -16  -19    0    2    2    0.000008    0.000000   -0.000004    0.000000   -0.136811    0.173106
  -16  -18    0    1    1    0.000014    0.000000   -0.000008   -0.000000    0.043729   -0.177094
  -16  -18    0    2    1   -0.000006    0.000000   -0.000015   -0.000000   -0.000000    0.000000
  -16  -18    0    1    2   -0.000008    0.000000    0.000015    0.000000    0.000000   -0.000000
  -16  -18    0    2    2   -0.000014    0.000000    0.000008   -0.000000   -0.326724   -0.173960
  -16  -17    0    1    1    0.000002    0.000000   -0.000001   -0.000000    0.198515    0.178018
  -16  -17    0    2    1    0.000005   -0.000000    0.000001   -0.000000    0.000000    0.000000
  -16  -17    0    1    2    0.000011    0.000000    0.000016   -0.000000   -0.000000   -0.000000
  -16  -17    0    2    2   -0.000002    0.000000    0.000001   -0.000000    0.035668   -0.006480
  -16  -16    0    1    1   -0.000008    0.000000    0.000004   -0.000000   -0.136931   -0.109544
  -16  -16    0    2    1   -0.000004    0.000000    0.000005   -0.000000   -0.000000    0.000000
  -16  -16    0    1    2    0.000006    0.000000   -0.000001   -0.000000   -0.000000   -0.000000
  -16  -16    0    2    2    0.000008   -0.000000   -0.000004    0.000000   -0.127232    0.207347
  -16  -15    0    1    1   -0.000007    0.000000    0.000004   -0.000000    0.355594   -0.184700
  -16  -15    0    2    1    0.000000   -0.000000   -0.000003   -0.000000   -0.000000    0.000000
  -16  -15    0    1    2    0.000005   -0.000000   -0.000000    0.000000   -0.000000    0.000000
  -16  -15    0    2    2    0.000007   -0.000000   -0.000004    0.000000   -0.115527    0.054459
  -16  -14    0    1    1    0.000008    0.000000   -0.000005   -0.000000    0.122649    0.038202
  -16  -14    0    2    1    0.000011   -0.000000    0.000009    0.000000    0.000000    0.000000
  -16  -14    0    1    2   -0.000011   -0.000000   -0.000013    0.000000   -0.000000    0.000000
  -16  -14    0    2    2   -0.000008   -0.000000    0.000005    0.000000    0.041248   -0.026907
  -16  -13    0    1    1    0.000005   -0.000000   -0.000003    0.000000    0.113272   -0.058533
  -16  -13    0    2    1   -0.000006    0.000000    0.000007    0.000000    0.000000   -0.000000
  -16  -13    0    1    2   -0.000014    0.000000    0.000008   -0.000000   -0.000000    0.000000
  -16  -13    0    2    2   -0.000005    0.000000    0.000003   -0.000000   -0.033415   -0.213821
  -16  -12    0    1    1   -0.000006    0.000000    0.000005   -0.000000   -0.002657    0.006461
  -16  -12    0    2    1   -0.000009    0.000000   -0.000013    0.000000   -0.000000   -0.000000
  -16  -12    0    1    2    0.000017    0.000000    0.000011   -0.000000   -0.000000    0.000000
  -16  -12    0    2    2    0.000006   -0.000000   -0.000005    0.000000   -0.182737    0.475367
  -16  -11    0    1    1    0.000006    0.000000   -0.000005   -0.000000    0.155535    0.113558
  -16  -11    0    2    1    0.000014    0.000000    0.000002   -0.000000   -0.000000   -0.000000
  -16  -11    0    1    2    0.000003    0.000000   -0.000004    0.000000    0.000000    0.000000
  -16  -11    0    2    2   -0.000006   -0.000000    0.000005    0.000000   -0.195802    0.051390
  -16  -10    0    1    1   -0.000006   -0.000000    0.000006    0.000000   -0.332419    0.123119
  -16  -10    0    2    1   -0.000004   -0.000000   -0.000001   -0.000000   -0.000000   -0.000000
  -16  -10    0    1    2    0.000006   -0.000000    0.000003   -0.000000   -0.000000    0.000000
  -16  -10    0    2    2    0.000006   -0.000000   -0.000006    0.000000    0.037894    0.274396
  -16   -9    0    1    1    0.000000   -0.000000   -0.000001    0.000000   -0.075848    0.214099
  -16   -9    0    2    1    0.000010   -0.000000   -0.000002   -0.000000   -0.000000    0.000000
  -16   -9    0    1    2    0.000006    0.000000   -0.000007   -0.000000   -0.000000    0.000000
  -16   -9    0    2    2   -0.000000   -0.000000    0.000001    0.000000    0.009584    0.019711
  -16   -8    0    1    1   -0.000001    0.000000   -0.000001   -0.000000    0.089913   -0.290562
  -16   -8    0    2    1    0.000004    0.000000    0.000010   -0.000000    0.000000   -0.000000
  -16   -8    0    1    2   -0.000005   -0.000000    0.000000   -0.000000    0.000000   -0.000000
  -16   -8    0    2    2    0.000001    0.000000    0.000001    0.000000    0.020848    0.198006
  -16   -7    0    1    1   -0.000000    0.000000    0.000000   -0.000000   -0.185295   -0.098343
  -16   -7    0    2    1   -0.000003    0.000000   -0.000003    0.000000    0.000000    0.000000
  -16   -7    0    1    2   -0.000002   -0.000000   -0.000004   -0.000000    0.000000   -0.000000
  -16   -7    0    2    2    0.000000   -0.000000   -0.000000    0.000000   -0.290884    0.159937
  -16   -6    0    1    1    0.000002    0.000000   -0.000008   -0.000000   -0.277732    0.298247
  -16   -6    0    2    1    0.000009    0.000000    0.000012   -0.000000    0.000000    0.000000
  -16   -6    0    1    2   -0.000003    0.000000    0.000009   -0.000000   -0.000000   -0.000000
  -16   -6    0    2    2   -0.000002    0.000000    0.000008   -0.000000   -0.229111    0.219566
  -16   -5    0    1    1   -0.000002    0.000000    0.000008   -0.000000   -0.133524    0.022178
  -16   -5    0    2    1   -0.000015    0.000000   -0.000002   -0.000000    0.000000    0.000000
  -16   -5    0    1    2    0.000006    0.000000    0.000004    0.000000   -0.000000   -0.000000
  -16   -5    0    2    2    0.000002    0.000000   -0.000008   -0.000000   -0.055624   -0.010822
  -16   -4    0    1    1    0.000001    0.000000   -0.000007   -0.000000   -0.005776    0.026657
  -16   -4    0    2    1    0.000003   -0.000000   -0.000010   -0.000000   -0.000000    0.000000
  -16   -4    0    1    2   -0.000002   -0.000000    0.000005   -0.000000   -0.000000    0.000000
  -16   -4    0    2    2   -0.000001    0.000000    0.000007   -0.000000    0.479012   -0.200615
  -16   -3    0    1    1   -0.000001   -0.000000    0.000006    0.000000    0.085516    0.107334
  -16   -3    0    2    1    0.000013   -0.000000    0.000005    0.000000   -0.000000    0.000000
  -16   -3    0    1    2    0.000018    0.000000    0.000010    0.000000   -0.000000    0.000000
  -16   -3    0    2    2    0.000001    0.000000   -0.000006   -0.000000    0.332438   -0.418538
  -16   -2    0    1    1   -0.000001   -0.000000    0.000010    0.000000    0.035112   -0.252732
  -16   -2    0    2    1   -0.000002    0.000000    0.000002    0.000000   -0.000000   -0.000000
  -16   -2    0    1    2    0.000000    0.000000   -0.000016    0.000000   -0.000000    0.000000
  -16   -2    0    2    2    0.000001    0.000000   -0.000010   -0.000000   -0.125652    0.215113
  -16   -1    0    1    1    0.000000   -0.000000   -0.000008    0.000000   -0.013985    0.277753
  -16   -1    0    2    1    0.000002   -0.000000   -0.000006    0.000000   -0.000000   -0.000000
  -16   -1    0    1    2   -0.000017    0.000000   -0.000003   -0.000000    0.000000   -0.000000
  -16   -1    0    2    2   -0.000000    0.000000    0.000008   -0.000000   -0.059252   -0.045451
  -16    0    0    1    1   -0.000000   -0.000000   -0.000009    0.000000    0.252654    0.010845
  -16    0    0    2    1    0.000003    0.000000    0.000004    0.000000   -0.000000   -0.000000
  -16    0    0    1    2    0.000002   -0.000000    0.000005   -0.000000    0.000000   -0.000000
  -16    0    0    2    2    0.000000   -0.000000    0.000009   -0.000000   -0.151011    0.130774
  -16    1    0    1    1    0.000000    0.000000    0.000003   -0.000000    0.087476    0.008712
  -16    1    0    2    1   -0.000016   -0.000000    0.000003   -0.000000    0.000000   -0.000000
  -16    1    0    1    2    0.000002   -0.000000    0.000006   -0.000000    0.000000    0.000000
  -16    1    0    2    2   -0.000000   -0.000000   -0.000003    0.000000   -0.019438    0.157003
  -16    2    0    1    1    0.000000   -0.000000    0.000016    0.000000    0.265220    0.032969
  -16    2    0    2    1    0.000016    0.000000   -0.000007   -0.000000   -0.000000   -0.000000
  -16    2    0    1    2    0.000020   -0.000000    0.000002   -0.000000    0.000000    0.000000
  -16    2    0    2    2   -0.000000    0.000000   -0.000016    0.000000    0.172942    0.151234
  -16    3    0    1    1   -0.000001   -0.000000   -0.000008    0.000000   -0.042860   -0.142642
  -16    3    0    2    1   -0.000000    0.000000    0.000005   -0.000000   -0.000000    0.000000
  -16    3    0    1    2    0.000009   -0.000000   -0.000014   -0.000000    0.000000   -0.000000
  -16    3    0    2    2    0.000001   -0.000000    0.000008   -0.000000    0.086233    0.059646
  -16    4    0    1    1    0.000000   -0.000000   -0.000002   -0.000000    0.274276   -0.100604
  -16    4    0    2    1   -0.000014   -0.000000   -0.000003    0.000000    0.000000    0.000000
  -16    4    0    1    2   -0.000013   -0.000000    0.000001    0.000000    0.000000   -0.000000
  -16    4    0    2    2   -0.000000    0.000000    0.000002   -0.000000   -0.092665    0.027450
  -15  -21    0    1    1    0.000003   -0.000000   -0.000002   -0.000000    0.001790    0.087978
  -15  -21    0    2    1    0.000000   -0.000000   -0.000000   -0.000000   -0.000000   -0.000000
  -15  -21    0    1    2   -0.000007    0.000000    0.000004   -0.000000   -0.000000    0.000000
  -15  -21    0    2    2   -0.000003   -0.000000    0.000002    0.000000   -0.340115    0.030661
  -15  -20    0    1    1   -0.000004    0.000000    0.000003   -0.000000    0.262362    0.004316
  -15  -20    0    2    1    0.000003    0.000000    0.000014    0.000000    0.000000    0.000000
  -15  -20    0    1    2   -0.000002    0.000000   -0.000008   -0.000000    0.000000    0.000000
  -15  -20    0    2    2    0.000004    0.000000   -0.000003   -0.000000   -0.152716    0.017742
  -15  -19    0    1    1    0.000010   -0.000000   -0.000005    0.000000   -0.137579   -0.087386
  -15  -19    0    2    1   -0.000010    0.000000   -0.000021   -0.000000   -0.000000   -0.000000
  -15  -19    0    1    2   -0.000012    0.000000    0.000000   -0.000000    0.000000    0.000000
  -15  -19    0    2    2   -0.000010    0.000000    0.000005   -0.000000   -0.140404    0.313907
  -15  -18    0    1    1    0.000001   -0.000000   -0.000000    0.000000   -0.195503    0.196814
  -15  -18    0    2    1    0.000005    0.000000   -0.000004    0.000000    0.000000    0.000000
  -15  -18    0    1    2    0.000017   -0.000000    0.000019    0.000000    0.000000   -0.000000
  -15  -18    0    2    2   -0.000001   -0.000000    0.000000    0.000000    0.200340   -0.154801
  -15  -17    0    1    1   -0.000009    0.000000    0.000005   -0.000000    0.209289   -0.161159
  -15  -17    0    2    1   -0.000001   -0.000000    0.000005   -0.000000    0.000000    0.000000
  -15  -17    0    1    2   -0.000006    0.000000   -0.000029   -0.000000   -0.000000   -0.000000
  -15  -17    0    2    2    0.000009   -0.000000   -0.000005    0.000000   -0.042513    0.128838
  -15  -16    0    1    1   -0.000007   -0.000000    0.000004    0.000000    0.121904   -0.005358
  -15  -16    0    2    1   -0.000003    0.000000    0.000004   -0.000000    0.000000    0.000000
  -15  -16    0    1    2   -0.000003    0.000000   -0.000001    0.000000   -0.000000    0.000000
  -15  -16    0    2    2    0.000007    0.000000   -0.000004   -0.000000   -0.333238   -0.239802
  -15  -15    0    1    1    0.000012   -0.000000   -0.000007    0.000000    0.465362    0.200340
  -15  -15    0    2    1   -0.000001    0.000000   -0.000012   -0.000000    0.000000    0.000000
  -15  -15    0    1    2   -0.000010   -0.000000   -0.000007    0.000000   -0.000000    0.000000
  -15  -15    0    2    2   -0.000012   -0.000000    0.000007    0.000000   -0.153362    0.071918
  -15  -14    0    1    1    0.000007   -0.000000   -0.000005    0.000000    0.229766    0.202483
  -15  -14    0    2    1   -0.000002    0.000000   -0.000001    0.000000   -0.000000    0.000000
  -15  -14    0    1    2   -0.000002   -0.000000    0.000014    0.000000   -0.000000    0.000000
  -15  -14    0    2    2   -0.000007   -0.000000    0.000005    0.000000   -0.169873   -0.161107
  -15  -13    0    1    1   -0.000011   -0.000000    0.000008   -0.000000    0.242828    0.048150
  -15  -13    0    2    1   -0.000009   -0.000000   -0.000010   -0.000000    0.000000    0.000000
  -15  -13    0    1    2    0.000023   -0.000000    0.000016   -0.000000   -0.000000   -0.000000
  -15  -13    0    2    2    0.000011   -0.000000   -0.000008    0.000000    0.155702    0.219761
  -15  -12    0    1    1   -0.000005    0.000000    0.000003   -0.000000    0.036439   -0.018736
  -15  -12    0    2    1    0.000011   -0.000000    0.000006   -0.000000   -0.000000   -0.000000
  -15  -12    0    1    2    0.000003    0.000000   -0.000010    0.000000   -0.000000    0.000000
  -15  -12    0    2    2    0.000005    0.000000   -0.000003   -0.000000    0.191793   -0.161889
  -15  -11    0    1    1   -0.000002    0.000000    0.000002   -0.000000   -0.165003   -0.099349
  -15  -11    0    2    1    0.000003    0.000000    0.000016    0.000000   -0.000000   -0.000000
  -15  -11    0    1    2   -0.000011    0.000000   -0.000010   -0.000000   -0.000000    0.000000
  -15  -11    0    2    2    0.000002   -0.000000   -0.000002    0.000000   -0.190876    0.175711
  -15  -10    0    1    1    0.000001    0.000000   -0.000001   -0.000000    0.065647   -0.204583
  -15  -10    0    2    1   -0.000014    0.000000   -0.000010   -0.000000   -0.000000    0.000000
  -15  -10    0    1    2   -0.000009   -0.000000    0.000001    0.000000   -0.000000    0.000000
  -15  -10    0    2    2   -0.000001   -0.000000    0.000001    0.000000    0.240513   -0.207817
  -15   -9    0    1    1    0.000002   -0.000000   -0.000003    0.000000   -0.013844   -0.238367
  -15   -9    0    2    1    0.000005   -0.000000    0.000005   -0.000000    0.000000    0.000000
  -15   -9    0    1    2   -0.000005   -0.000000    0.000005    0.000000   -0.000000   -0.000000
  -15   -9    0    2    2   -0.000002    0.000000    0.000003   -0.000000   -0.137855    0.352594
  -15   -8    0    1    1    0.000002    0.000000   -0.000002   -0.000000   -0.270184   -0.051116
  -15   -8    0    2    1   -0.000014   -0.000000   -0.000008   -0.000000    0.000000   -0.000000
  -15   -8    0    1    2   -0.000013    0.000000   -0.000001    0.000000   -0.000000   -0.000000
  -15   -8    0    2    2   -0.000002   -0.000000    0.000002    0.000000   -0.099687   -0.109173
  -15   -7    0    1    1   -0.000001   -0.000000    0.000003    0.000000   -0.124162   -0.037898
  -15   -7    0    2    1    0.000007   -0.000000    0.000001    0.000000    0.000000    0.000000
  -15   -7    0    1    2   -0.000002   -0.000000   -0.000001   -0.000000    0.000000   -0.000000
  -15   -7    0    2    2    0.000001   -0.000000   -0.000003    0.000000   -0.140597   -0.059907
  -15   -6    0    1    1   -0.000001    0.000000    0.000003   -0.000000   -0.261109    0.102302
  -15   -6    0    2    1   -0.000015   -0.000000   -0.000008   -0.000000    0.000000   -0.000000
  -15   -6    0    1    2   -0.000007   -0.000000   -0.000011   -0.000000   -0.000000   -0.000000
  -15   -6    0    2    2    0.000001   -0.000000   -0.000003   -0.000000    0.256900   -0.344655
  -15   -5    0    1    1   -0.000000    0.000000    0.000001    0.000000    0.125645   -0.063439
  -15   -5    0    2    1    0.000014    0.000000   -0.000005    0.000000   -0.000000    0.000000
  -15   -5    0    1    2    0.000001    0.000000   -0.000007    0.000000   -0.000000   -0.000000
  -15   -5    0    2    2    0.000000    0.000000   -0.000001   -0.000000   -0.122425    0.060876
  -15   -4    0    1    1    0.000000   -0.000000   -0.000002    0.000000    0.100653    0.115212
  -15   -4    0    2    1    0.000011   -0.000000    0.000007    0.000000   -0.000000   -0.000000
  -15   -4    0    1    2   -0.000003    0.000000   -0.000008   -0.000000    0.000000   -0.000000
  -15   -4    0    2    2   -0.000000   -0.000000    0.000002    0.000000   -0.172623   -0.031844
  -15   -3    0    1    1    0.000001   -0.000000   -0.000006    0.000000    0.002750    0.090451
  -15   -3    0    2    1   -0.000013    0.000000   -0.000003   -0.000000   -0.000000   -0.000000
  -15   -3    0    1    2   -0.000014    0.000000   -0.000004   -0.000000   -0.000000    0.000000
  -15   -3    0    2    2   -0.000001   -0.000000    0.000006    0.000000   -0.219833    0.079431
  -15   -2    0    1    1    0.000001   -0.000000   -0.000014    0.000000   -0.299712    0.113896
  -15   -2    0    2    1   -0.000002    0.000000   -0.000002   -0.000000   -0.000000   -0.000000
  -15   -2    0    1    2   -0.000007   -0.000000    0.000008   -0.000000   -0.000000    0.000000
  -15   -2    0    2    2   -0.000001   -0.000000    0.000014    0.000000    0.225521   -0.260023
  -15   -1    0    1    1   -0.000000    0.000000    0.000009    0.000000   -0.112584   -0.112248
  -15   -1    0    2    1   -0.000011   -0.000000    0.000005    0.000000   -0.000000    0.000000
  -15   -1    0    1    2    0.000025    0.000000    0.000012   -0.000000   -0.000000    0.000000
  -15   -1    0    2    2    0.000000   -0.000000   -0.000009    0.000000   -0.033579    0.062147
  -15    0    0    1    1   -0.000000    0.000000    0.000014    0.000000   -0.153895    0.023371
  -15    0    0    2    1    0.000002   -0.000000   -0.000005   -0.000000    0.000000    0.000000
  -15    0    0    1    2    0.000011   -0.000000   -0.000009   -0.000000    0.000000   -0.000000
  -15    0    0    2    2    0.000000    0.000000   -0.000014   -0.000000    0.153490    0.178206
  -15    1    0    1    1   -0.000000   -0.000000   -0.000008   -0.000000    0.280662    0.056154
  -15    1    0    2    1    0.000004    0.000000   -0.000004   -0.000000    0.000000    0.000000
  -15    1    0    1    2   -0.000011    0.000000   -0.000005    0.000000   -0.000000    0.000000
  -15    1    0    2    2    0.000000   -0.000000    0.000008    0.000000    0.233112   -0.193829
  -15    2    0    1    1   -0.000000   -0.000000   -0.000010    0.000000   -0.089921   -0.029804
  -15    2    0    2    1   -0.000001   -0.000000    0.000006    0.000000    0.000000   -0.000000
  -15    2    0    1    2   -0.000003   -0.000000   -0.000002    0.000000    0.000000    0.000000
  -15    2    0    2    2    0.000000   -0.000000    0.000010   -0.000000   -0.023492    0.009235
  -15    3    0    1    1    0.000000   -0.000000    0.000001   -0.000000    0.065384   -0.019290
  -15    3    0    2    1   -0.000024   -0.000000    0.000001   -0.000000   -0.000000   -0.000000
  -15    3    0    1    2   -0.000028    0.000000    0.000009   -0.000000    0.000000    0.000000
  -15    3    0    2    2   -0.000000    0.000000   -0.000001   -0.000000    0.103890   -0.142470
  -15    4    0    1    1    0.000001   -0.000000    0.000012    0.000000    0.067963    0.144765
  -15    4    0    2    1    0.000014    0.000000   -0.000003   -0.000000    0.000000   -0.000000
  -15    4    0    1    2    0.000025   -0.000000    0.000005    0.000000   -0.000000   -0.000000
  -15    4    0    2    2   -0.000001    0.000000   -0.000012   -0.000000   -0.145434    0.161707
  -15    5    0    1    1    0.000000    0.000000   -0.000005   -0.000000    0.221647    0.083528
  -15    5    0    2    1    0.000000   -0.000000    0.000000    0.000000    0.000000    0.000000
  -15    5    0    1    2   -0.000006   -0.000000   -0.000011    0.000000   -0.000000    0.000000
  -15    5    0    2    2   -0.000000   -0.000000    0.000005   -0.000000    0.166922    0.072953
  -15    6    0    1    1   -0.000000   -0.000000    0.000003    0.000000   -0.058627   -0.116423
  -15    6    0    2    1    0.000007    0.000000   -0.000005   -0.000000    0.000000   -0.000000
  -15    6    0    1    2   -0.000008    0.000000    0.000002   -0.000000   -0.000000    0.000000
  -15    6    0    2    2    0.000000   -0.000000   -0.000003    0.000000   -0.325993    0.219630
  -14  -22    0    1    1    0.000004   -0.000000   -0.000003    0.000000   -0.126252   -0.009159
  -14  -22    0    2    1   -0.000003    0.000000    0.000002   -0.000000   -0.000000   -0.000000
  -14  -22    0    1    2   -0.000012   -0.000000    0.000007    0.000000   -0.000000    0.000000
  -14  -22    0    2    2   -0.000004    0.000000    0.000003   -0.000000   -0.047109   -0.112058
  -14  -21    0    1    1   -0.000003   -0.000000    0.000002   -0.000000   -0.448582    0.030705
  -14  -21    0    2    1   -0.000009    0.000000   -0.000003   -0.000000    0.000000    0.000000
  -14  -21    0    1    2    0.000010   -0.000000    0.000010    0.000000    0.000000    0.000000
  -14  -21    0    2    2    0.000003   -0.000000   -0.000002   -0.000000    0.197434   -0.252640
  -14  -20    0    1    1    0.000001    0.000000   -0.000001    0.000000    0.288120    0.130975
  -14  -20    0    2    1    0.000005   -0.000000   -0.000000    0.000000   -0.000000   -0.000000
  -14  -20    0    1    2    0.000006   -0.000000   -0.000002   -0.000000    0.000000   -0.000000
  -14  -20    0    2    2   -0.000001    0.000000    0.000001    0.000000   -0.099024    0.160393
  -14  -19    0    1    1   -0.000002    0.000000    0.000001   -0.000000    0.174073    0.104803
  -14  -19    0    2    1    0.000002    0.000000   -0.000005    0.000000    0.000000    0.000000
  -14  -19    0    1    2    0.000008    0.000000    0.000005    0.000000   -0.000000    0.000000
  -14  -19    0    2    2    0.000002   -0.000000   -0.000001    0.000000    0.098267   -0.069251
  -14  -18    0    1    1   -0.000003   -0.000000    0.000001    0.000000    0.125516   -0.121139
  -14  -18    0    2    1    0.000003   -0.000000    0.000002   -0.000000    0.000000   -0.000000
  -14  -18    0    1    2   -0.000003   -0.000000   -0.000013   -0.000000    0.000000    0.000000
  -14  -18    0    2    2    0.000003    0.000000   -0.000001   -0.000000   -0.219023    0.311101
  -14  -17    0    1    1   -0.000003   -0.000000    0.000001    0.000000    0.084757    0.112492
  -14  -17    0    2    1   -0.000004    0.000000    0.000015    0.000000    0.000000    0.000000
  -14  -17    0    1    2   -0.000010   -0.000000    0.000002    0.000000   -0.000000   -0.000000
  -14  -17    0    2    2    0.000003    0.000000   -0.000001   -0.000000   -0.027955    0.083929
  -14  -16    0    1    1    0.000009    0.000000   -0.000004   -0.000000   -0.167245   -0.303407
  -14  -16    0    2    1   -0.000006    0.000000   -0.000016    0.000000    0.000000    0.000000
  -14  -16    0    1    2    0.000002   -0.000000    0.000014    0.000000    0.000000    0.000000
  -14  -16    0    2    2   -0.000009    0.000000    0.000004   -0.000000   -0.267514    0.089619
  -14  -15    0    1    1    0.000008   -0.000000   -0.000004    0.000000    0.271820   -0.004947
  -14  -15    0    2    1    0.000013    0.000000    0.000005    0.000000    0.000000    0.000000
  -14  -15    0    1    2    0.000000   -0.000000   -0.000003    0.000000   -0.000000    0.000000
  -14  -15    0    2    2   -0.000008    0.000000    0.000004   -0.000000   -0.247153   -0.152325
  -14  -14    0    1    1   -0.000016   -0.000000    0.000009    0.000000   -0.125465    0.085597
  -14  -14    0    2    1   -0.000009    0.000000    0.000002   -0.000000   -0.000000    0.000000
  -14  -14    0    1    2    0.000007    0.000000   -0.000007    0.000000   -0.000000    0.000000
  -14  -14    0    2    2    0.000016    0.000000   -0.000009   -0.000000    0.207099    0.001569
  -14  -13    0    1    1   -0.000007   -0.000000    0.000004    0.000000    0.273558    0.030810
  -14  -13    0    2    1    0.000002   -0.000000   -0.000001    0.000000   -0.000000   -0.000000
  -14  -13    0    1    2   -0.000005    0.000000   -0.000016   -0.000000   -0.000000   -0.000000
  -14  -13    0    2    2    0.000007    0.000000   -0.000004   -0.000000    0.330702   -0.133862
  -14  -12    0    1    1    0.000013    0.000000   -0.000009   -0.000000    0.214519    0.199859
  -14  -12    0    2    1    0.000004    0.000000    0.000006   -0.000000   -0.000000   -0.000000
  -14  -12    0    1    2   -0.000014    0.000000   -0.000005    0.000000   -0.000000   -0.000000
  -14  -12    0    2    2   -0.000013   -0.000000    0.000009    0.000000   -0.032171    0.106460
  -14  -11    0    1    1    0.000009    0.000000   -0.000007   -0.000000    0.064429    0.159032
  -14  -11    0    2    1   -0.000007    0.000000   -0.000006   -0.000000   -0.000000   -0.000000
  -14  -11    0    1    2   -0.000011    0.000000    0.000009   -0.000000    0.000000   -0.000000
  -14  -11    0    2    2   -0.000009    0.000000    0.000007   -0.000000   -0.140308   -0.213306
  -14  -10    0    1    1   -0.000000    0.000000    0.000001   -0.000000   -0.015141    0.094905
  -14  -10    0    2    1    0.000006   -0.000000   -0.000005   -0.000000    0.000000    0.000000
  -14  -10    0    1    2    0.000015   -0.000000    0.000004    0.000000   -0.000000    0.000000
  -14  -10    0    2    2    0.000000   -0.000000   -0.000001    0.000000    0.127784   -0.221734
  -14   -9    0    1    1    0.000006    0.000000   -0.000007   -0.000000   -0.232370    0.241605
  -14   -9    0    2    1    0.000009   -0.000000    0.000003   -0.000000    0.000000    0.000000
  -14   -9    0    1    2   -0.000004    0.000000   -0.000010   -0.000000   -0.000000   -0.000000
  -14   -9    0    2    2   -0.000006   -0.000000    0.000007    0.000000    0.062841    0.083912
  -14   -8    0    1    1   -0.000002   -0.000000    0.000002    0.000000    0.311994   -0.047699
  -14   -8    0    2    1    0.000008    0.000000    0.000006    0.000000    0.000000    0.000000
  -14   -8    0    1    2    0.000014    0.000000    0.000014   -0.000000   -0.000000   -0.000000
  -14   -8    0    2    2    0.000002    0.000000   -0.000002   -0.000000    0.045250    0.108833
  -14   -7    0    1    1   -0.000001   -0.000000   -0.000000    0.000000   -0.156566   -0.001709
  -14   -7    0    2    1    0.000009    0.000000    0.000005    0.000000    0.000000    0.000000
  -14   -7    0    1    2    0.000011   -0.000000   -0.000003    0.000000    0.000000   -0.000000
  -14   -7    0    2    2    0.000001    0.000000    0.000000   -0.000000    0.086435    0.022640
  -14   -6    0    1    1    0.000001   -0.000000   -0.000002    0.000000   -0.070657   -0.231252
  -14   -6    0    2    1    0.000007    0.000000    0.000007   -0.000000    0.000000   -0.000000
  -14   -6    0    1    2    0.000003   -0.000000    0.000011    0.000000   -0.000000   -0.000000
  -14   -6    0    2    2   -0.000001    0.000000    0.000002   -0.000000   -0.057346   -0.002420
  -14   -5    0    1    1   -0.000003    0.000000    0.000009   -0.000000   -0.122747   -0.009214
  -14   -5    0    2    1   -0.000001   -0.000000    0.000009    0.000000    0.000000   -0.000000
  -14   -5    0    1    2    0.000019    0.000000    0.000005   -0.000000   -0.000000    0.000000
  -14   -5    0    2    2    0.000003   -0.000000   -0.000009    0.000000    0.070885   -0.126044
  -14   -4    0    1    1    0.000000   -0.000000   -0.000001    0.000000   -0.270164    0.443769
  -14   -4    0    2    1   -0.000008    0.000000   -0.000004    0.000000    0.000000   -0.000000
  -14   -4    0    1    2   -0.000011    0.000000    0.000002    0.000000   -0.000000   -0.000000
  -14   -4    0    2    2   -0.000000    0.000000    0.000001    0.000000   -0.076183    0.231143
  -14   -3    0    1    1   -0.000002   -0.000000    0.000011    0.000000   -0.018572    0.098619
  -14   -3    0    2    1    0.000007   -0.000000    0.000000   -0.000000    0.000000   -0.000000
  -14   -3    0    1    2    0.000011    0.000000    0.000011   -0.000000   -0.000000    0.000000
  -14   -3    0    2    2    0.000002   -0.000000   -0.000011    0.000000    0.178448   -0.158126
  -14   -2    0    1    1   -0.000002    0.000000    0.000015   -0.000000   -0.251977   -0.047289
  -14   -2    0    2    1   -0.000000   -0.000000    0.000002   -0.000000   -0.000000   -0.000000
  -14   -2    0    1    2    0.000002    0.000000   -0.000014   -0.000000    0.000000    0.000000
  -14   -2    0    2    2    0.000002   -0.000000   -0.000015    0.000000    0.019032    0.030649
  -14   -1    0    1    1    0.000000    0.000000   -0.000008   -0.000000    0.144002   -0.052812
  -14   -1    0    2    1   -0.000003    0.000000   -0.000009   -0.000000   -0.000000   -0.000000
  -14   -1    0    1    2   -0.000011    0.000000   -0.000010    0.000000    0.000000    0.000000
  -14   -1    0    2    2   -0.000000   -0.000000    0.000008    0.000000    0.204264   -0.011225
  -14    0    0    1    1    0.000000   -0.000000   -0.000019   -0.000000   -0.067200   -0.475367
  -14    0    0    2    1    0.000012    0.000000    0.000008    0.000000    0.000000    0.000000
  -14    0    0    1    2   -0.000016    0.000000    0.000004   -0.000000   -0.000000   -0.000000
  -14    0    0    2    2   -0.000000   -0.000000    0.000019    0.000000    0.054049    0.386001
  -14    1    0    1    1    0.000000   -0.000000    0.000009   -0.000000   -0.027022   -0.068732
  -14    1    0    2    1   -0.000017    0.000000    0.000003    0.000000    0.000000    0.000000
  -14    1    0    1    2   -0.000002    0.000000    0.000009   -0.000000   -0.000000    0.000000
  -14    1    0    2    2   -0.000000    0.000000   -0.000009   -0.000000   -0.092931    0.001964
  -14    2    0    1    1    0.000001    0.000000    0.000010    0.000000   -0.193839    0.222353
  -14    2    0    2    1    0.000011   -0.000000   -0.000010    0.000000    0.000000   -0.000000
  -14    2    0    1    2   -0.000002   -0.000000    0.000001    0.000000   -0.000000    0.000000
  -14    2    0    2    2   -0.000001   -0.000000   -0.000010   -0.000000   -0.158822   -0.038970
  -14    3    0    1    1   -0.000000    0.000000   -0.000003    0.000000   -0.016873    0.227259
  -14    3    0    2    1    0.000003   -0.000000    0.000001   -0.000000    0.000000    0.000000
  -14    3    0    1    2    0.000013   -0.000000   -0.000005   -0.000000   -0.000000    0.000000
  -14    3    0    2    2    0.000000   -0.000000    0.000003   -0.000000   -0.129238    0.068860
  -14    4    0    1    1   -0.000000   -0.000000   -0.000003    0.000000    0.032689   -0.307205
  -14    4    0    2    1   -0.000004   -0.000000    0.000004   -0.000000    0.000000   -0.000000
  -14    4    0    1    2   -0.000003   -0.000000   -0.000010    0.000000   -0.000000    0.000000
  -14    4    0    2    2    0.000000   -0.000000    0.000003    0.000000   -0.514653    0.295770
  -14    5    0    1    1   -0.000000   -0.000000   -0.000003    0.000000   -0.199859   -0.173115
  -14    5    0    2    1    0.000002    0.000000    0.000004    0.000000    0.000000    0.000000
  -14    5    0    1    2   -0.000013   -0.000000    0.000004    0.000000   -0.000000    0.000000
  -14    5    0    2    2    0.000000    0.000000    0.000003    0.000000   -0.199397   -0.072589
  -14    6    0    1    1    0.000000    0.000000    0.000002   -0.000000    0.276292    0.074038
  -14    6    0    2    1   -0.000007   -0.000000   -0.000005   -0.000000   -0.000000    0.000000
  -14    6    0    1    2    0.000008    0.000000    0.000005    0.000000    0.000000    0.000000
  -14    6    0    2    2   -0.000000    0.000000   -0.000002   -0.000000    0.213588   -0.112858
  -14    7    0    1    1    0.000000   -0.000000   -0.000004    0.000000   -0.103360   -0.030339
  -14    7    0    2    1    0.000000   -0.000000   -0.000004    0.000000   -0.000000   -0.000000
  -14    7    0    1    2    0.000002    0.000000    0.000006   -0.000000    0.000000   -0.000000
  -14    7    0    2    2   -0.000000   -0.000000    0.000004    0.000000   -0.270649    0.030375
  -14    8    0    1    1   -0.000000    0.000000    0.000005   -0.000000   -0.140136   -0.040574
  -14    8    0    2    1    0.000003    0.000000   -0.000007   -0.000000   -0.000000   -0.000000
  -14    8    0    1    2    0.000014    0.000000    0.000003    0.000000    0.000000   -0.000000
  -14    8    0    2    2    0.000000    0.000000   -0.000005    0.000000    0.018326   -0.130142
  -13  -23    0    1    1    0.000005    0.000000   -0.000003   -0.000000   -0.107636    0.102865
  -13  -23    0    2    1    0.000014   -0.000000   -0.000008    0.000000   -0.000000   -0.000000
  -13  -23    0    1    2    0.000006   -0.000000   -0.000004    0.000000    0.000000   -0.000000
  -13  -23    0    2    2   -0.000005    0.000000    0.000003   -0.000000    0.166033    0.092925
  -13  -22    0    1    1   -0.000003    0.000000    0.000002    0.000000    0.351736    0.181706
  -13  -22    0    2    1   -0.000008   -0.000000    0.000001    0.000000   -0.000000    0.000000
  -13  -22    0    1    2    0.000005   -0.000000    0.000002    0.000000    0.000000    0.000000
  -13  -22    0    2    2    0.000003    0.000000   -0.000002   -0.000000   -0.238277    0.083589
  -13  -21    0    1    1    0.000001   -0.000000   -0.000001   -0.000000    0.044770    0.222043
  -13  -21    0    2    1    0.000008   -0.000000   -0.000008    0.000000   -0.000000    0.000000
  -13  -21    0    1    2    0.000001    0.000000   -0.000012    0.000000    0.000000   -0.000000
  -13  -21    0    2    2   -0.000001    0.000000    0.000001   -0.000000   -0.057287   -0.057214
  -13  -20    0    1    1   -0.000005   -0.000000    0.000001   -0.000000   -0.005149    0.078579
  -13  -20    0    2    1    0.000002    0.000000    0.000015    0.000000    0.000000    0.000000
  -13  -20    0    1    2   -0.000002    0.000000   -0.000007   -0.000000    0.000000   -0.000000
  -13  -20    0    2    2    0.000005    0.000000   -0.000001   -0.000000    0.276306    0.159401
  -13  -19    0    1    1    0.000006   -0.000000   -0.000002    0.000000   -0.120445   -0.011374
  -13  -19    0    2    1   -0.000001   -0.000000   -0.000011   -0.000000   -0.000000   -0.000000
  -13  -19    0    1    2   -0.000010    0.000000   -0.000000    0.000000    0.000000   -0.000000
  -13  -19    0    2    2   -0.000006   -0.000000    0.000002    0.000000    0.048813   -0.172140
  -13  -18    0    1    1    0.000002   -0.000000   -0.000001    0.000000   -0.089959    0.279425
  -13  -18    0    2    1    0.000004    0.000000    0.000024    0.000000   -0.000000    0.000000
  -13  -18    0    1    2   -0.000007   -0.000000    0.000008    0.000000   -0.000000    0.000000
  -13  -18    0    2    2   -0.000002    0.000000    0.000001   -0.000000    0.114529    0.182899
  -13  -17    0    1    1    0.000002    0.000000   -0.000000    0.000000    0.428903   -0.016378
  -13  -17    0    2    1   -0.000011    0.000000   -0.000019    0.000000   -0.000000    0.000000
  -13  -17    0    1    2    0.000001   -0.000000    0.000005   -0.000000   -0.000000   -0.000000
  -13  -17    0    2    2   -0.000002    0.000000    0.000000   -0.000000    0.088867   -0.210303
  -13  -16    0    1    1    0.000005    0.000000   -0.000003   -0.000000   -0.463790   -0.131430
  -13  -16    0    2    1    0.000014    0.000000   -0.000008   -0.000000    0.000000   -0.000000
  -13  -16    0    1    2    0.000009    0.000000   -0.000001    0.000000   -0.000000    0.000000
  -13  -16    0    2    2   -0.000005    0.000000    0.000003   -0.000000    0.273397   -0.114685
  -13  -15    0    1    1   -0.000012    0.000000    0.000006   -0.000000   -0.279442   -0.271050
  -13  -15    0    2    1    0.000003    0.000000    0.000028    0.000000   -0.000000   -0.000000
  -13  -15    0    1    2   -0.000004   -0.000000   -0.000013    0.000000    0.000000    0.000000
  -13  -15    0    2    2    0.000012    0.000000   -0.000006   -0.000000    0.120884    0.079272
  -13  -14    0    1    1   -0.000007   -0.000000    0.000004    0.000000    0.388046   -0.402183
  -13  -14    0    2    1   -0.000011   -0.000000   -0.000012    0.000000   -0.000000   -0.000000
  -13  -14    0    1    2   -0.000002    0.000000    0.000001    0.000000   -0.000000    0.000000
  -13  -14    0    2    2    0.000007    0.000000   -0.000004   -0.000000   -0.042078   -0.262793
  -13  -13    0    1    1    0.000017    0.000000   -0.000010   -0.000000   -0.221514    0.256400
  -13  -13    0    2    1    0.000009   -0.000000    0.000005    0.000000   -0.000000    0.000000
  -13  -13    0    1    2   -0.000000   -0.000000    0.000010    0.000000   -0.000000    0.000000
  -13  -13    0    2    2   -0.000017    0.000000    0.000010   -0.000000    0.221230   -0.205859
  -13  -12    0    1    1    0.000006    0.000000   -0.000004   -0.000000   -0.307206   -0.296114
  -13  -12    0    2    1   -0.000003   -0.000000   -0.000007   -0.000000   -0.000000   -0.000000
  -13  -12    0    1    2   -0.000001    0.000000    0.000009    0.000000   -0.000000   -0.000000
  -13  -12    0    2    2   -0.000006    0.000000    0.000004   -0.000000    0.267492    0.136365
  -13  -11    0    1    1   -0.000008   -0.000000    0.000006    0.000000   -0.057058   -0.054170
  -13  -11    0    2    1    0.000007   -0.000000   -0.000000    0.000000    0.000000   -0.000000
  -13  -11    0    1    2    0.000017    0.000000    0.000002    0.000000   -0.000000    0.000000
  -13  -11    0    2    2    0.000008   -0.000000   -0.000006    0.000000    0.419455    0.084899
  -13  -10    0    1    1   -0.000004    0.000000    0.000003    0.000000    0.132694   -0.097669
  -13  -10    0    2    1    0.000004    0.000000    0.000006   -0.000000    0.000000    0.000000
  -13  -10    0    1    2   -0.000004   -0.000000   -0.000014    0.000000   -0.000000    0.000000
  -13  -10    0    2    2    0.000004    0.000000   -0.000003   -0.000000   -0.228979    0.202438
  -13   -9    0    1    1   -0.000005   -0.000000    0.000005    0.000000   -0.362165    0.109101
  -13   -9    0    2    1   -0.000009    0.000000    0.000004    0.000000    0.000000   -0.000000
  -13   -9    0    1    2   -0.000002    0.000000    0.000006    0.000000   -0.000000    0.000000
  -13   -9    0    2    2    0.000005   -0.000000   -0.000005    0.000000    0.137804   -0.176760
  -13   -8    0    1    1   -0.000007    0.000000    0.000009   -0.000000   -0.194983    0.206230
  -13   -8    0    2    1   -0.000011    0.000000   -0.000011   -0.000000    0.000000   -0.000000
  -13   -8    0    1    2    0.000015   -0.000000    0.000003   -0.000000    0.000000   -0.000000
  -13   -8    0    2    2    0.000007   -0.000000   -0.000009    0.000000   -0.368044   -0.211856
  -13   -7    0    1    1    0.000003   -0.000000   -0.000005    0.000000   -0.089867   -0.037336
  -13   -7    0    2    1   -0.000001    0.000000   -0.000001    0.000000   -0.000000    0.000000
  -13   -7    0    1    2   -0.000008   -0.000000   -0.000004    0.000000   -0.000000    0.000000
  -13   -7    0    2    2   -0.000003   -0.000000    0.000005    0.000000   -0.229182    0.031458
  -13   -6    0    1    1   -0.000003    0.000000    0.000005   -0.000000   -0.313612    0.145734
  -13   -6    0    2    1   -0.000014   -0.000000   -0.000004    0.000000    0.000000    0.000000
  -13   -6    0    1    2    0.000001   -0.000000    0.000001    0.000000    0.000000   -0.000000
  -13   -6    0    2    2    0.000003   -0.000000   -0.000005    0.000000    0.041362    0.087103
  -13   -5    0    1    1    0.000004    0.000000   -0.000011   -0.000000   -0.139547    0.046074
  -13   -5    0    2    1   -0.000002   -0.000000   -0.000011   -0.000000    0.000000   -0.000000
  -13   -5    0    1    2   -0.000008   -0.000000   -0.000005   -0.000000   -0.000000    0.000000
  -13   -5    0    2    2   -0.000004    0.000000    0.000011   -0.000000    0.017517    0.193729
  -13   -4    0    1    1    0.000002    0.000000   -0.000007   -0.000000   -0.144390   -0.005324
  -13   -4    0    2    1    0.000007   -0.000000    0.000001    0.000000    0.000000   -0.000000
  -13   -4    0    1    2    0.000011    0.000000    0.000011   -0.000000   -0.000000   -0.000000
  -13   -4    0    2    2   -0.000002   -0.000000    0.000007    0.000000    0.192887    0.128232
  -13   -3    0    1    1    0.000001    0.000000   -0.000005   -0.000000    0.099499   -0.098199
  -13   -3    0    2    1    0.000004   -0.000000    0.000007   -0.000000    0.000000   -0.000000
  -13   -3    0    1    2    0.000005    0.000000   -0.000005    0.000000   -0.000000    0.000000
  -13   -3    0    2    2   -0.000001   -0.000000    0.000005    0.000000    0.283107   -0.083704
  -13   -2    0    1    1    0.000001   -0.000000   -0.000009    0.000000   -0.135298   -0.143473
  -13   -2    0    2    1   -0.000007    0.000000    0.000001   -0.000000    0.000000    0.000000
  -13   -2    0    1    2   -0.000014    0.000000    0.000004    0.000000   -0.000000    0.000000
  -13   -2    0    2    2   -0.000001    0.000000    0.000009    0.000000    0.155538    0.091462
  -13   -1    0    1    1   -0.000000    0.000000    0.000007   -0.000000   -0.106349    0.121675
  -13   -1    0    2    1    0.000009    0.000000    0.000005   -0.000000   -0.000000   -0.000000
  -13   -1    0    1    2    0.000010    0.000000    0.000014    0.000000    0.000000   -0.000000
  -13   -1    0    2    2    0.000000   -0.000000   -0.000007    0.000000   -0.249612    0.012115
  -13    0    0    1    1   -0.000000    0.000000    0.000020    0.000000   -0.245416   -0.060308
  -13    0    0    2    1   -0.000016    0.000000   -0.000004   -0.000000   -0.000000    0.000000
  -13    0    0    1    2    0.000008   -0.000000   -0.000005   -0.000000    0.000000    0.000000
  -13    0    0    2    2    0.000000    0.000000   -0.000020    0.000000    0.205157   -0.031164
  -13    1    0    1    1   -0.000000    0.000000   -0.000008    0.000000    0.059161   -0.138023
  -13    1    0    2    1    0.000024    0.000000   -0.000010    0.000000    0.000000   -0.000000
  -13    1    0    1    2    0.000009    0.000000   -0.000005   -0.000000   -0.000000   -0.000000
  -13    1    0    2    2    0.000000   -0.000000    0.000008    0.000000   -0.024535   -0.195788
  -13    2    0    1    1   -0.000001   -0.000000   -0.000014   -0.000000   -0.038666    0.134756
  -13    2    0    2    1    0.000001    0.000000    0.000015    0.000000   -0.000000    0.000000
  -13    2    0    1    2   -0.000001    0.000000   -0.000002   -0.000000   -0.000000    0.000000
  -13    2    0    2    2    0.000001   -0.000000    0.000014   -0.000000    0.273091    0.021644
  -13    3    0    1    1    0.000001    0.000000    0.000006    0.000000    0.074826    0.066070
  -13    3    0    2    1   -0.000022   -0.000000   -0.000000    0.000000   -0.000000   -0.000000
  -13    3    0    1    2   -0.000013    0.000000    0.000003   -0.000000   -0.000000    0.000000
  -13    3    0    2    2   -0.000001    0.000000   -0.000006    0.000000    0.168648   -0.115654
  -13    4    0    1    1    0.000001    0.000000    0.000002    0.000000   -0.187499    0.256584
  -13    4    0    2    1    0.000023   -0.000000   -0.000008    0.000000    0.000000   -0.000000
  -13    4    0    1    2    0.000004    0.000000    0.000009   -0.000000   -0.000000    0.000000
  -13    4    0    2    2   -0.000001   -0.000000   -0.000002   -0.000000    0.100356   -0.022346
  -13    5    0    1    1    0.000000   -0.000000    0.000002    0.000000   -0.251801    0.272026
  -13    5    0    2    1   -0.000010   -0.000000    0.000004    0.000000   -0.000000   -0.000000
  -13    5    0    1    2    0.000005    0.000000   -0.000002   -0.000000   -0.000000   -0.000000
  -13    5    0    2    2   -0.000000    0.000000   -0.000002    0.000000    0.227261   -0.220244
  -13    6    0    1    1    0.000001   -0.000000    0.000007    0.000000    0.041933    0.129719
  -13    6    0    2    1    0.000014    0.000000   -0.000005   -0.000000   -0.000000   -0.000000
  -13    6    0    1    2    0.000003   -0.000000   -0.000010    0.000000   -0.000000   -0.000000
  -13    6    0    2    2   -0.000001    0.000000   -0.000007    0.000000   -0.054411    0.312598
  -13    7    0    1    1   -0.000002    0.000000   -0.000005   -0.000000    0.157671   -0.005999
  -13    7    0    2    1   -0.000003    0.000000    0.000010    0.000000   -0.000000   -0.000000
  -13    7    0    1    2   -0.000005   -0.000000   -0.000008   -0.000000    0.000000   -0.000000
  -13    7    0    2    2    0.000002    0.000000    0.000005    0.000000    0.037415    0.235879
  -13    8    0    1    1   -0.000000    0.000000    0.000001   -0.000000   -0.244871   -0.110596
  -13    8    0    2    1   -0.000003   -0.000000   -0.000007   -0.000000   -0.000000   -0.000000
  -13    8    0    1    2   -0.000007    0.000000    0.000002   -0.000000    0.000000   -0.000000
  -13    8    0    2    2    0.000000   -0.000000   -0.000001   -0.000000    0.125248   -0.139426
  -13    9    0    1    1    0.000000    0.000000   -0.000004    0.000000    0.036822    0.078803
  -13    9    0    2    1    0.000000   -0.000000    0.000015   -0.000000   -0.000000   -0.000000
  -13    9    0    1    2   -0.000009    0.000000    0.000007    0.000000    0.000000   -0.000000
  -13    9    0    2    2   -0.000000   -0.000000    0.000004    0.000000    0.108767    0.235989
  -13   10    0    1    1    0.000000    0.000000    0.000005   -0.000000    0.024873   -0.050557
  -13   10    0    2    1   -0.000022    0.000000   -0.000010    0.000000   -0.000000    0.000000
  -13   10    0    1    2    0.000005    0.000000    0.000004    0.000000   -0.000000   -0.000000
[...]
   18   13    0    1    1    0.000002   -0.000000   -0.000001   -0.000000   -0.268989   -0.066870
   18   13    0    2    1   -0.000019   -0.000000   -0.000015    0.000000   -0.000000    0.000000
   18   13    0    1    2   -0.000010   -0.000000    0.000002    0.000000    0.000000    0.000000
   18   13    0    2    2   -0.000002    0.000000    0.000001   -0.000000    0.085790    0.042041
   18   14    0    1    1   -0.000002    0.000000    0.000002   -0.000000   -0.302919   -0.030246
   18   14    0    2    1   -0.000000   -0.000000   -0.000004    0.000000   -0.000000   -0.000000
   18   14    0    1    2    0.000010    0.000000    0.000009   -0.000000    0.000000    0.000000
   18   14    0    2    2    0.000002   -0.000000   -0.000002    0.000000    0.180532   -0.059815
   18   15    0    1    1    0.000001   -0.000000   -0.000001    0.000000   -0.249313   -0.222934
   18   15    0    2    1    0.000006    0.000000   -0.000002   -0.000000    0.000000   -0.000000
   18   15    0    1    2   -0.000008    0.000000   -0.000024   -0.000000   -0.000000   -0.000000
   18   15    0    2    2   -0.000001    0.000000    0.000001   -0.000000    0.042918   -0.098444
   18   16    0    1    1    0.000014   -0.000000   -0.000008    0.000000    0.020128    0.189621
   18   16    0    2    1    0.000011    0.000000    0.000012   -0.000000    0.000000    0.000000
   18   16    0    1    2   -0.000017    0.000000   -0.000001    0.000000   -0.000000    0.000000
   18   16    0    2    2   -0.000014   -0.000000    0.000008    0.000000   -0.091451   -0.048884
   18   17    0    1    1   -0.000005    0.000000    0.000003   -0.000000    0.272152   -0.086208
   18   17    0    2    1   -0.000008    0.000000   -0.000005    0.000000    0.000000    0.000000
   18   17    0    1    2    0.000007   -0.000000    0.000010   -0.000000   -0.000000   -0.000000
   18   17    0    2    2    0.000005    0.000000   -0.000003   -0.000000   -0.057631    0.327721
   18   18    0    1    1   -0.000006    0.000000    0.000004   -0.000000    0.439815    0.000000
   18   18    0    2    1   -0.000004    0.000000    0.000002    0.000000   -0.000000    0.000000
   18   18    0    1    2    0.000004   -0.000000   -0.000002    0.000000   -0.000000   -0.000000
   18   18    0    2    2    0.000006   -0.000000   -0.000004   -0.000000   -0.061728    0.000000
   19    2    0    1    1    0.000000    0.000000   -0.000007   -0.000000   -0.128007    0.186365
   19    2    0    2    1   -0.000016    0.000000   -0.000007    0.000000   -0.000000   -0.000000
   19    2    0    1    2   -0.000013   -0.000000    0.000001    0.000000   -0.000000   -0.000000
   19    2    0    2    2   -0.000000    0.000000    0.000007   -0.000000    0.062494   -0.120355
   19    3    0    1    1    0.000001   -0.000000   -0.000008    0.000000   -0.049161   -0.172368
   19    3    0    2    1    0.000024   -0.000000    0.000001   -0.000000   -0.000000    0.000000
   19    3    0    1    2    0.000000    0.000000    0.000015    0.000000   -0.000000   -0.000000
   19    3    0    2    2   -0.000001   -0.000000    0.000008    0.000000   -0.064890    0.350244
   19    4    0    1    1   -0.000001   -0.000000    0.000012    0.000000   -0.359322    0.071910
   19    4    0    2    1    0.000004    0.000000    0.000004    0.000000    0.000000    0.000000
   19    4    0    1    2    0.000013   -0.000000    0.000001   -0.000000    0.000000   -0.000000
   19    4    0    2    2    0.000001    0.000000   -0.000012   -0.000000   -0.099081   -0.375216
   19    5    0    1    1    0.000000    0.000000   -0.000003   -0.000000   -0.096253    0.091637
   19    5    0    2    1    0.000010   -0.000000    0.000004    0.000000    0.000000    0.000000
   19    5    0    1    2    0.000005    0.000000   -0.000010    0.000000    0.000000   -0.000000
   19    5    0    2    2   -0.000000    0.000000    0.000003   -0.000000   -0.386900   -0.050590
   19    6    0    1    1   -0.000001   -0.000000    0.000007   -0.000000   -0.433504   -0.061154
   19    6    0    2    1   -0.000000   -0.000000    0.000006    0.000000   -0.000000   -0.000000
   19    6    0    1    2   -0.000008   -0.000000    0.000004   -0.000000   -0.000000   -0.000000
   19    6    0    2    2    0.000001    0.000000   -0.000007   -0.000000   -0.062439    0.096993
   19    7    0    1    1   -0.000002    0.000000    0.000005   -0.000000    0.055123   -0.232779
   19    7    0    2    1   -0.000006    0.000000    0.000006   -0.000000   -0.000000   -0.000000
   19    7    0    1    2    0.000005    0.000000   -0.000008    0.000000   -0.000000    0.000000
   19    7    0    2    2    0.000002    0.000000   -0.000005   -0.000000    0.234106   -0.154708
   19    8    0    1    1    0.000002    0.000000   -0.000002   -0.000000   -0.102218   -0.355014
   19    8    0    2    1   -0.000010   -0.000000   -0.000007   -0.000000    0.000000    0.000000
   19    8    0    1    2   -0.000018    0.000000    0.000004    0.000000   -0.000000    0.000000
   19    8    0    2    2   -0.000002   -0.000000    0.000002    0.000000    0.240810    0.322676
   19    9    0    1    1   -0.000001   -0.000000    0.000003    0.000000   -0.000276    0.156888
   19    9    0    2    1   -0.000009    0.000000   -0.000005    0.000000    0.000000   -0.000000
   19    9    0    1    2    0.000010   -0.000000    0.000008   -0.000000   -0.000000    0.000000
   19    9    0    2    2    0.000001   -0.000000   -0.000003    0.000000    0.059113    0.018770
   19   10    0    1    1    0.000003    0.000000   -0.000002   -0.000000    0.106425    0.057142
   19   10    0    2    1   -0.000012   -0.000000   -0.000005   -0.000000    0.000000    0.000000
   19   10    0    1    2   -0.000006    0.000000   -0.000003    0.000000   -0.000000   -0.000000
   19   10    0    2    2   -0.000003    0.000000    0.000002   -0.000000   -0.039549    0.038112
   19   11    0    1    1   -0.000001    0.000000    0.000003   -0.000000   -0.265852    0.132573
   19   11    0    2    1    0.000003   -0.000000   -0.000008   -0.000000    0.000000   -0.000000
   19   11    0    1    2    0.000012   -0.000000    0.000005    0.000000   -0.000000   -0.000000
   19   11    0    2    2    0.000001    0.000000   -0.000003    0.000000    0.286529   -0.042041
   19   12    0    1    1    0.000003    0.000000   -0.000004   -0.000000   -0.432665    0.153639
   19   12    0    2    1    0.000006    0.000000   -0.000003   -0.000000    0.000000   -0.000000
   19   12    0    1    2   -0.000006    0.000000   -0.000017   -0.000000    0.000000    0.000000
   19   12    0    2    2   -0.000003   -0.000000    0.000004    0.000000    0.051637    0.022775
   19   13    0    1    1    0.000005   -0.000000   -0.000004    0.000000    0.068252    0.035037
   19   13    0    2    1    0.000009   -0.000000    0.000006   -0.000000    0.000000    0.000000
   19   13    0    1    2   -0.000005   -0.000000    0.000008   -0.000000    0.000000    0.000000
   19   13    0    2    2   -0.000005    0.000000    0.000004   -0.000000    0.094917   -0.047131
   19   14    0    1    1   -0.000002    0.000000    0.000001   -0.000000   -0.093769    0.004413
   19   14    0    2    1    0.000005   -0.000000    0.000001    0.000000    0.000000    0.000000
   19   14    0    1    2   -0.000000    0.000000   -0.000009    0.000000    0.000000   -0.000000
   19   14    0    2    2    0.000002    0.000000   -0.000001   -0.000000    0.016916   -0.027785
   19   15    0    1    1    0.000010   -0.000000   -0.000006   -0.000000   -0.203918   -0.198414
   19   15    0    2    1    0.000013   -0.000000    0.000019   -0.000000    0.000000   -0.000000
   19   15    0    1    2   -0.000007    0.000000    0.000010    0.000000   -0.000000   -0.000000
   19   15    0    2    2   -0.000010    0.000000    0.000006   -0.000000   -0.088215    0.314587
   19   16    0    1    1   -0.000007   -0.000000    0.000005    0.000000   -0.271718   -0.214852
   19   16    0    2    1   -0.000015    0.000000   -0.000010   -0.000000    0.000000   -0.000000
   19   16    0    1    2    0.000007   -0.000000    0.000011   -0.000000   -0.000000   -0.000000
   19   16    0    2    2    0.000007   -0.000000   -0.000005    0.000000    0.291481    0.213073
   20    4    0    1    1   -0.000000   -0.000000   -0.000002   -0.000000    0.274276   -0.100605
   20    4    0    2    1   -0.000014   -0.000000   -0.000003    0.000000    0.000000    0.000000
   20    4    0    1    2   -0.000013   -0.000000    0.000001    0.000000    0.000000   -0.000000
   20    4    0    2    2    0.000000    0.000000    0.000002   -0.000000   -0.092665    0.027450
   20    5    0    1    1   -0.000000   -0.000000   -0.000005    0.000000   -0.039500    0.157313
   20    5    0    2    1   -0.000002    0.000000    0.000004    0.000000    0.000000    0.000000
   20    5    0    1    2    0.000000   -0.000000    0.000007   -0.000000   -0.000000    0.000000
   20    5    0    2    2    0.000000    0.000000    0.000005   -0.000000   -0.091984   -0.281801
   20    6    0    1    1   -0.000000    0.000000    0.000002   -0.000000    0.333893   -0.121857
   20    6    0    2    1   -0.000014    0.000000   -0.000005   -0.000000   -0.000000    0.000000
   20    6    0    1    2    0.000008    0.000000    0.000002   -0.000000   -0.000000   -0.000000
   20    6    0    2    2    0.000000    0.000000   -0.000002   -0.000000   -0.321704    0.031032
   20    7    0    1    1    0.000002   -0.000000   -0.000005    0.000000   -0.216961    0.001287
   20    7    0    2    1    0.000015   -0.000000   -0.000001   -0.000000   -0.000000   -0.000000
   20    7    0    1    2   -0.000001    0.000000    0.000006   -0.000000   -0.000000   -0.000000
   20    7    0    2    2   -0.000002    0.000000    0.000005   -0.000000    0.277082   -0.188404
   20    8    0    1    1   -0.000001    0.000000    0.000003    0.000000   -0.049043    0.165939
   20    8    0    2    1    0.000007    0.000000    0.000003    0.000000    0.000000    0.000000
   20    8    0    1    2    0.000007    0.000000    0.000002    0.000000   -0.000000    0.000000
   20    8    0    2    2    0.000001    0.000000   -0.000003   -0.000000   -0.028548    0.203780
   20    9    0    1    1    0.000000   -0.000000   -0.000002    0.000000    0.163021   -0.121744
   20    9    0    2    1    0.000014    0.000000    0.000002   -0.000000    0.000000    0.000000
   20    9    0    1    2   -0.000000    0.000000   -0.000012   -0.000000    0.000000    0.000000
   20    9    0    2    2   -0.000000   -0.000000    0.000002   -0.000000    0.106336   -0.253955
   20   10    0    1    1   -0.000002   -0.000000   -0.000001    0.000000    0.129147    0.060570
   20   10    0    2    1    0.000009    0.000000    0.000010    0.000000    0.000000    0.000000
   20   10    0    1    2   -0.000009    0.000000    0.000002    0.000000   -0.000000   -0.000000
   20   10    0    2    2    0.000002   -0.000000    0.000001   -0.000000   -0.175256    0.235954
   20   11    0    1    1   -0.000001   -0.000000    0.000001   -0.000000    0.375574    0.235891
   20   11    0    2    1    0.000006    0.000000    0.000005    0.000000   -0.000000    0.000000
   20   11    0    1    2   -0.000003   -0.000000   -0.000009   -0.000000   -0.000000   -0.000000
   20   11    0    2    2    0.000001   -0.000000   -0.000001    0.000000    0.236212   -0.081361
   20   12    0    1    1    0.000002    0.000000   -0.000003   -0.000000   -0.078607    0.079772
   20   12    0    2    1    0.000006   -0.000000    0.000013   -0.000000    0.000000   -0.000000
   20   12    0    1    2   -0.000010   -0.000000    0.000005   -0.000000    0.000000    0.000000
   20   12    0    2    2   -0.000002   -0.000000    0.000003    0.000000    0.106317    0.090744
   20   13    0    1    1   -0.000004   -0.000000    0.000004    0.000000    0.041294    0.067867
   20   13    0    2    1   -0.000012   -0.000000   -0.000008    0.000000    0.000000    0.000000
   20   13    0    1    2    0.000005   -0.000000    0.000006   -0.000000    0.000000    0.000000
   20   13    0    2    2    0.000004    0.000000   -0.000004   -0.000000    0.119636   -0.031350
   20   14    0    1    1    0.000001   -0.000000   -0.000001    0.000000    0.060118   -0.036409
   20   14    0    2    1    0.000003    0.000000   -0.000004    0.000000   -0.000000    0.000000
   20   14    0    1    2    0.000004    0.000000   -0.000004    0.000000   -0.000000    0.000000
   20   14    0    2    2   -0.000001    0.000000    0.000001   -0.000000    0.167406    0.188040
   20   15    0    1    1   -0.000004   -0.000000    0.000002    0.000000    0.158290   -0.235101
   20   15    0    2    1   -0.000010    0.000000   -0.000010   -0.000000    0.000000    0.000000
   20   15    0    1    2    0.000006    0.000000    0.000006    0.000000   -0.000000    0.000000
   20   15    0    2    2    0.000004    0.000000   -0.000002   -0.000000    0.243699    0.247606
   21    6    0    1    1    0.000000   -0.000000    0.000003    0.000000   -0.058627   -0.116423
   21    6    0    2    1    0.000007    0.000000   -0.000005   -0.000000    0.000000   -0.000000
   21    6    0    1    2   -0.000008    0.000000    0.000002   -0.000000   -0.000000    0.000000
   21    6    0    2    2   -0.000000   -0.000000   -0.000003    0.000000   -0.325993    0.219630
   21    7    0    1    1   -0.000000   -0.000000   -0.000004    0.000000   -0.074325    0.270063
   21    7    0    2    1    0.000003    0.000000    0.000010   -0.000000    0.000000   -0.000000
   21    7    0    1    2   -0.000000    0.000000   -0.000008    0.000000   -0.000000   -0.000000
   21    7    0    2    2    0.000000    0.000000    0.000004    0.000000   -0.111400   -0.121101
   21    8    0    1    1    0.000000   -0.000000    0.000001    0.000000    0.072775    0.080480
   21    8    0    2    1   -0.000013    0.000000   -0.000005   -0.000000   -0.000000   -0.000000
   21    8    0    1    2   -0.000014    0.000000    0.000003    0.000000   -0.000000   -0.000000
   21    8    0    2    2   -0.000000   -0.000000   -0.000001    0.000000   -0.094937   -0.003861
   21    9    0    1    1    0.000000   -0.000000   -0.000000   -0.000000    0.026249    0.333986
   21    9    0    2    1    0.000001   -0.000000    0.000015    0.000000   -0.000000    0.000000
   21    9    0    1    2    0.000009    0.000000    0.000007    0.000000    0.000000   -0.000000
   21    9    0    2    2   -0.000000    0.000000    0.000000    0.000000    0.347554   -0.202408
   21   10    0    1    1    0.000001   -0.000000    0.000002   -0.000000    0.011466   -0.192388
   21   10    0    2    1   -0.000024   -0.000000   -0.000013   -0.000000    0.000000   -0.000000
   21   10    0    1    2   -0.000006   -0.000000    0.000002    0.000000   -0.000000   -0.000000
   21   10    0    2    2   -0.000001   -0.000000   -0.000002   -0.000000   -0.001711    0.184277
   21   11    0    1    1    0.000002   -0.000000   -0.000001    0.000000   -0.589883   -0.114884
   21   11    0    2    1    0.000015   -0.000000   -0.000007    0.000000    0.000000   -0.000000
   21   11    0    1    2    0.000023   -0.000000    0.000013    0.000000   -0.000000   -0.000000
   21   11    0    2    2   -0.000002   -0.000000    0.000001   -0.000000    0.099833    0.198001
   21   12    0    1    1    0.000000    0.000000    0.000000    0.000000    0.236299    0.199989
   21   12    0    2    1   -0.000012    0.000000   -0.000008    0.000000   -0.000000   -0.000000
   21   12    0    1    2   -0.000002   -0.000000   -0.000006   -0.000000   -0.000000    0.000000
   21   12    0    2    2   -0.000000   -0.000000   -0.000000    0.000000   -0.042918    0.107674
   21   13    0    1    1    0.000001   -0.000000   -0.000001    0.000000    0.334676   -0.033282
   21   13    0    2    1    0.000011    0.000000   -0.000003   -0.000000   -0.000000    0.000000
   21   13    0    1    2    0.000011   -0.000000    0.000004   -0.000000   -0.000000    0.000000
   21   13    0    2    2   -0.000001    0.000000    0.000001   -0.000000   -0.066823    0.128487
   21   14    0    1    1   -0.000003   -0.000000    0.000002   -0.000000    0.401455   -0.084093
   21   14    0    2    1   -0.000002   -0.000000    0.000009    0.000000   -0.000000    0.000000
   21   14    0    1    2   -0.000004    0.000000   -0.000013    0.000000   -0.000000    0.000000
   21   14    0    2    2    0.000003   -0.000000   -0.000002    0.000000   -0.149846   -0.101291
   22    8    0    1    1    0.000000    0.000000    0.000005   -0.000000   -0.140136   -0.040574
   22    8    0    2    1    0.000003    0.000000   -0.000007   -0.000000   -0.000000   -0.000000
   22    8    0    1    2    0.000014    0.000000    0.000003    0.000000    0.000000   -0.000000
   22    8    0    2    2   -0.000000    0.000000   -0.000005    0.000000    0.018326   -0.130142
   22    9    0    1    1   -0.000000   -0.000000   -0.000004    0.000000   -0.045254    0.393306
   22    9    0    2    1    0.000006   -0.000000    0.000001    0.000000   -0.000000    0.000000
   22    9    0    1    2   -0.000000    0.000000   -0.000014    0.000000   -0.000000   -0.000000
   22    9    0    2    2    0.000000   -0.000000    0.000004   -0.000000   -0.208807   -0.025293
   22   10    0    1    1   -0.000000   -0.000000    0.000001    0.000000    0.066795    0.163041
   22   10    0    2    1    0.000013    0.000000   -0.000002    0.000000    0.000000    0.000000
   22   10    0    1    2   -0.000004    0.000000    0.000003    0.000000   -0.000000   -0.000000
   22   10    0    2    2    0.000000    0.000000   -0.000001   -0.000000    0.209327   -0.004816
   22   11    0    1    1   -0.000003   -0.000000   -0.000002   -0.000000   -0.147925   -0.114609
   22   11    0    2    1    0.000004    0.000000    0.000012    0.000000    0.000000   -0.000000
   22   11    0    1    2    0.000002    0.000000   -0.000021   -0.000000    0.000000    0.000000
   22   11    0    2    2    0.000003   -0.000000    0.000002   -0.000000   -0.046415    0.230816
   22   12    0    1    1    0.000001    0.000000   -0.000001    0.000000    0.030413    0.062091
   22   12    0    2    1    0.000004   -0.000000    0.000004    0.000000    0.000000   -0.000000
   22   12    0    1    2   -0.000017   -0.000000    0.000013   -0.000000   -0.000000   -0.000000
   22   12    0    2    2   -0.000001    0.000000    0.000001   -0.000000   -0.098283   -0.270389
   22   13    0    1    1   -0.000003   -0.000000    0.000002   -0.000000    0.066181    0.067530
   22   13    0    2    1   -0.000005   -0.000000    0.000006   -0.000000   -0.000000   -0.000000
   22   13    0    1    2    0.000001   -0.000000   -0.000005   -0.000000    0.000000    0.000000
   22   13    0    2    2    0.000003   -0.000000   -0.000002    0.000000   -0.150019    0.010952
   23   10    0    1    1    0.000000    0.000000    0.000005   -0.000000    0.024873   -0.050557
   23   10    0    2    1   -0.000022    0.000000   -0.000010    0.000000   -0.000000    0.000000
   23   10    0    1    2    0.000005    0.000000    0.000004    0.000000   -0.000000   -0.000000
   23   10    0    2    2   -0.000000    0.000000   -0.000005   -0.000000    0.103373    0.195355
   23   11    0    1    1    0.000002   -0.000000   -0.000002    0.000000   -0.099706   -0.047588
   23   11    0    2    1   -0.000002    0.000000   -0.000002   -0.000000    0.000000   -0.000000
   23   11    0    1    2   -0.000000    0.000000    0.000007    0.000000   -0.000000    0.000000
   23   11    0    2    2   -0.000002    0.000000    0.000002    0.000000   -0.043012   -0.057698
   23   12    0    1    1   -0.000001   -0.000000    0.000003   -0.000000   -0.011898    0.065512
   23   12    0    2    1   -0.000020   -0.000000   -0.000012   -0.000000   -0.000000   -0.000000
   23   12    0    1    2    0.000014    0.000000    0.000008   -0.000000    0.000000    0.000000
   23   12    0    2    2    0.000001   -0.000000   -0.000003   -0.000000    0.060723    0.232072
