 written on 25Jun2022 at 16:46:11 
   2.46719708155835       0.000000000000000E+000  0.000000000000000E+000
  -1.23359854077917        2.13665532255427       0.000000000000000E+000
  0.000000000000000E+000  0.000000000000000E+000   19.9999999165419     
           2
        1309
    1    1    2    1    1    1    1    1    2    1    1    1    1    1    1
    1    1    2    1    1    1    1    1    1    1    1    1    1    1    2
    1    1    1    1    1    1    1    1    1    1    1    1    1    1    2
    2    1    1    1    1    1    1    1    1    1    1    1    1    1    1
    1    1    1    2    1    1    1    1    1    1    1    1    1    1    1
    1    1    1    1    1    1    1    1    1    1    2    1    1    1    1
    1    1    1    1    1    1    1    1    1    1    1    1    1    1    1
    1    1    1    1    1    2    1    1    1    1    1    1    1    1    1
    1    1    1    1    1    1    1    1    1    1    1    1    1    1    1
    1    1    1    2    1    1    1    1    1    1    1    1    1    1    1
    1    1    1    1    1    1    1    1    1    1    1    1    1    1    1
    1    1    1    1    2    1    1    1    1    1    1    1    1    1    1
    1    1    1    1    1    1    1    1    1    1    1    1    1    1    1
    1    1    1    1    1    1    1    1    2    1    1    1    1    1    1
    1    1    1    1    1    1    1    1    1    1    1    1    1    1    1
    1    1    1    1    1    1    1    1    1    1    1    1    1    1    1
    1    1    1    1    1    1    1    1    1    1    1    1    1    1    1
    1    1    1    1    1    1    1    1    1    1    1    1    1    1    1
    1    1    1    1    1    1    1    1    1    1    1    1    1    1    1
    1    1    1    1    1    1    1    1    1    1    1    1    1    1    1
    1    1    1    1    1    1    1    1    1    1    1    1    1    1    1
    1    1    1    1    1    1    1    1    1    1    1    1    1    1    1
    1    1    1    1    1    1    1    1    1    1    1    1    1    1    1
    1    1    1    1    1    1    1    1    1    1    1    1    1    1    1
    1    1    1    1    1    1    1    1    1    1    1    1    1    1    1
    1    1    1    1    1    1    1    1    1    1    1    1    1    1    1
    1    1    1    1    1    1    1    1    1    1    1    1    1    1    1
    1    1    1    1    1    1    1    1    1    1    1    1    1    1    1
    1    1    1    1    1    1    1    1    1    1    1    1    1    1    1
    1    1    1    1    1    1    1    1    1    1    1    1    1    1    1
    1    1    1    1    1    1    1    1    1    1    1    1    1    1    1
    1    1    1    1    1    1    1    1    1    1    1    1    1    1    1
    1    1    1    1    1    1    1    1    1    1    1    1    1    1    1
    1    1    1    1    1    1    1    1    1    1    1    1    1    1    1
    1    1    1    1    1    1    1    1    1    1    1    1    1    1    1
    1    1    1    1    1    1    1    1    1    1    1    1    1    1    1
    1    1    1    1    1    1    1    1    1    1    1    1    1    1    1
    1    1    1    1    1    1    1    1    1    1    1    1    1    1    1
    1    1    1    1    1    1    1    1    1    1    1    1    1    1    1
    1    1    1    1    1    1    1    1    1    1    1    1    1    1    1
    1    1    1    1    1    1    1    1    1    1    1    1    1    1    1
    1    1    1    1    1    1    1    1    1    1    1    1    1    1    1
    1    1    1    1    1    1    2    1    1    1    1    1    1    1    1
    1    1    1    1    1    1    1    1    1    1    1    1    1    1    1
    1    1    1    1    1    1    1    1    1    1    1    1    2    1    1
    1    1    1    1    1    1    1    1    1    1    1    1    1    1    1
    1    1    1    1    1    1    1    1    1    1    1    1    1    1    1
    1    1    1    1    1    1    1    1    1    1    1    1    1    1    1
    1    1    1    1    1    1    1    1    1    1    1    1    1    1    1
    1    1    1    1    1    1    1    1    1    1    1    1    1    1    1
    1    1    1    1    1    1    1    1    1    1    1    1    1    1    1
    1    1    1    1    1    1    1    1    1    1    1    1    1    1    1
    1    1    1    1    1    1    1    1    1    1    1    1    1    1    1
    1    1    1    1    1    1    1    1    1    1    1    1    1    1    1
    1    1    1    1    1    1    1    1    1    1    1    1    1    1    1
    1    1    1    1    1    1    1    1    1    1    1    1    1    1    1
    1    1    1    1    1    1    1    1    1    1    1    1    1    1    1
    1    1    1    1    1    1    1    1    1    1    1    1    1    1    1
    1    1    1    1    1    1    1    1    1    1    1    1    1    1    1
    1    1    1    1    1    1    1    1    1    1    1    1    1    1    1
    1    1    1    1    1    1    1    1    1    1    1    1    1    1    1
    1    1    1    1    1    1    1    1    1    1    1    1    1    1    1
    1    1    1    1    1    1    1    1    1    1    1    1    1    1    1
    1    1    1    1    1    1    1    1    1    1    1    1    1    1    1
    1    1    1    1    1    1    1    1    1    1    1    1    1    1    1
    1    1    1    1    1    1    1    1    1    1    1    1    1    1    1
    1    1    1    1    1    1    1    1    1    1    1    1    1    1    1
    1    1    1    1    1    1    1    1    1    1    1    1    1    1    1
    1    1    1    1    1    1    1    1    1    1    1    1    1    1    1
    1    1    1    1    1    1    1    1    1    1    1    1    1    1    1
    1    1    1    1    1    1    1    1    1    1    1    1    1    1    1
    1    1    1    1    1    1    1    1    1    1    1    1    1    1    1
    1    1    1    1    1    1    1    1    1    1    1    1    1    1    1
    1    1    1    1    1    1    1    1    1    1    2    1    1    1    1
    1    1    1    1    1    1    1    1    1    1    1    1    1    1    1
    1    1    1    1    1    1    1    1    1    1    1    1    1    1    2
    1    1    1    1    1    1    1    1    1    1    1    1    1    1    1
    1    1    1    1    1    1    1    1    1    1    1    1    1    1    1
    2    1    1    1    1    1    1    1    1    1    1    1    1    1    1
    1    1    1    1    1    1    1    1    1    1    1    1    1    2    1
    1    1    1    1    1    1    1    1    1    1    1    1    1    1    1
    1    1    1    1    1    1    1    1    2    1    1    1    1    1    1
    1    1    1    1    1    1    1    1    1    1    1    1    1    1    1
    2    1    1    1    1    1    1    1    1    1    1    1    1    1    1
    1    1    1    2    2    1    1    1    1    1    1    1    1    1    1
    1    1    1    1    2    1    1    1    1    1    1    1    1    1    1
    1    2    1    1    1    1    1    1    1    1    2    1    1    1    1
    1    2    1    1

  -23  -12    0
    1    1    0.26911549E-05  0.92382834E-15
    2    1    0.46311629E-05  0.22284691E-14
    1    2   -0.23873217E-05  0.37862725E-13
    2    2    0.26911550E-05 -0.14428834E-14

  -23  -11    0
    1    1    0.26911506E-05  0.16038955E-13
    2    1   -0.12342501E-05  0.37633958E-13
    1    2    0.17803529E-05 -0.12811800E-13
    2    2    0.26911506E-05 -0.16368187E-13

  -23  -10    0
    1    1   -0.75515351E-06  0.13375504E-13
    2    1    0.39008857E-05  0.10770031E-13
    1    2   -0.23873230E-05 -0.37257957E-13
    2    2   -0.75515351E-06 -0.16459707E-13

  -22  -13    0
    1    1    0.14551285E-05 -0.82164297E-14
    2    1    0.39008745E-05 -0.28648741E-13
    1    2   -0.24087132E-06  0.26836823E-13
    2    2    0.14551285E-05  0.76022359E-14

  -22  -12    0
    1    1   -0.50481376E-05 -0.85858512E-14
    2    1   -0.57919029E-05 -0.94676871E-14
    1    2    0.48762990E-05  0.18228041E-13
    2    2   -0.50481376E-05  0.65482965E-14

  -22  -11    0
    1    1    0.19877919E-05  0.78249581E-15
    2    1   -0.57918969E-05  0.30425315E-13
    1    2    0.27591840E-05 -0.44061976E-15
    2    2    0.19877919E-05  0.93989486E-15

  -22  -10    0
    1    1   -0.50481393E-05  0.95978726E-14
    2    1    0.39008638E-05  0.24002501E-13
    1    2    0.27591819E-05 -0.34605131E-13
    2    2   -0.50481393E-05 -0.17301780E-13

  -22   -9    0
    1    1    0.14551315E-05 -0.46881986E-14
    2    1   -0.11723604E-04 -0.13142265E-13
    1    2    0.48763039E-05 -0.15379191E-13
    2    2    0.14551315E-05 -0.10979173E-14

  -22   -8    0
    1    1   -0.24183928E-05 -0.77016301E-14
    2    1    0.48331971E-05 -0.77516119E-14
    1    2   -0.24086358E-06  0.14559534E-13
    2    2   -0.24183928E-05  0.21877031E-14

  -21  -14    0
    1    1    0.27932804E-05  0.93224921E-14
    2    1    0.48332067E-05 -0.11751667E-13
    1    2    0.41527441E-05 -0.26636896E-13
    2    2    0.27932803E-05 -0.82949056E-14

  -21  -13    0
    1    1   -0.23146331E-05 -0.57462715E-15
    2    1    0.18153370E-05 -0.58698706E-14
    1    2   -0.92326855E-05 -0.12199877E-13
    2    2   -0.23146331E-05 -0.30223355E-14

  -21  -12    0
    1    1    0.26502617E-05 -0.82828709E-14
    2    1    0.36276946E-05 -0.45939814E-14
    1    2   -0.76433750E-06 -0.16824649E-13
    2    2    0.26502616E-05  0.64661004E-14

  -21  -11    0
    1    1    0.78305157E-06  0.57588754E-14
    2    1    0.32659825E-05  0.22285125E-13
    1    2   -0.57172600E-05 -0.75226284E-14
    2    2    0.78305158E-06 -0.11107380E-13

  -21  -10    0
    1    1    0.78305215E-06 -0.13403829E-13
    2    1    0.36276988E-05  0.19465332E-13
    1    2   -0.32396215E-05 -0.18054135E-13
    2    2    0.78305222E-06  0.68961763E-14

  -21   -9    0
    1    1    0.26502611E-05 -0.24921471E-13
    2    1    0.18153324E-05 -0.80950871E-14
    1    2   -0.57172650E-05 -0.26535198E-13
    2    2    0.26502611E-05  0.26192048E-13

  -21   -8    0
    1    1   -0.23146353E-05 -0.24187195E-13
    2    1    0.48332103E-05 -0.20500962E-13
    1    2   -0.76435028E-06  0.43281351E-14
    2    2   -0.23146353E-05  0.20012366E-13

  -21   -7    0
    1    1    0.27932829E-05  0.32444750E-14
    2    1   -0.59874104E-05 -0.66014902E-14
    1    2   -0.92326914E-05  0.12466590E-13
    2    2    0.27932829E-05 -0.39572837E-14

  -21   -6    0
    1    1   -0.24810574E-05  0.20037628E-13
    2    1    0.47517720E-05  0.24146483E-13
    1    2    0.41527465E-05  0.39343528E-14
    2    2   -0.24810573E-05 -0.17722423E-13

  -20  -15    0
    1    1    0.14780909E-05  0.19864007E-14
    2    1    0.47517524E-05  0.30751660E-13
    1    2    0.32009334E-06 -0.95915029E-14
    2    2    0.14780909E-05  0.85112581E-15

  -20  -14    0
    1    1   -0.17577491E-05  0.77214710E-14
    2    1   -0.46303925E-05  0.12747615E-13
    1    2    0.33469218E-05 -0.23166365E-13
    2    2   -0.17577491E-05 -0.84565194E-14

  -20  -13    0
    1    1    0.16332613E-05  0.24928112E-13
    2    1    0.72514490E-05  0.12925858E-13
    1    2   -0.13821503E-05 -0.79584776E-14
    2    2    0.16332613E-05 -0.27759397E-13

  -20  -12    0
    1    1    0.17999437E-06  0.25827593E-14
    2    1   -0.10261505E-04  0.54149393E-14
    1    2    0.11142300E-04 -0.15285516E-13
    2    2    0.17999434E-06  0.68074344E-15

  -20  -11    0
    1    1   -0.50805607E-06  0.34761690E-14
    2    1   -0.18651601E-05 -0.59448974E-14
    1    2    0.17495810E-05  0.15054798E-13
    2    2   -0.50805616E-06 -0.97556511E-15

  -20  -10    0
    1    1   -0.14511553E-05 -0.11450964E-13
    2    1   -0.18651729E-05  0.14613311E-13
    1    2    0.83188663E-05  0.24534194E-13
    2    2   -0.14511554E-05  0.14252596E-13

  -20   -9    0
    1    1   -0.50805344E-06 -0.14001983E-13
    2    1   -0.10261481E-04  0.21619859E-13
    1    2    0.83188656E-05 -0.83891227E-14
    2    2   -0.50805346E-06  0.11432099E-13

  -20   -8    0
    1    1    0.17998798E-06 -0.31195207E-14
    2    1    0.72514459E-05 -0.81896295E-14
    1    2    0.17495799E-05 -0.16355840E-13
    2    2    0.17998796E-06  0.92648328E-14

  -20   -7    0
    1    1    0.16332665E-05 -0.11262530E-13
    2    1   -0.46303807E-05 -0.14988878E-13
    1    2    0.11142293E-04 -0.55970853E-14
    2    2    0.16332665E-05  0.12526926E-13

  -20   -6    0
    1    1   -0.17577573E-05  0.23681686E-13
    2    1    0.47517439E-05 -0.70689982E-15
    1    2   -0.13821311E-05  0.33222557E-13
    2    2   -0.17577572E-05 -0.13455112E-13

  -20   -5    0
    1    1    0.14780727E-05  0.32242492E-13
    2    1    0.12460341E-04  0.18846903E-13
    1    2    0.33469228E-05  0.11807395E-13
    2    2    0.14780727E-05 -0.36455485E-13

  -20   -4    0
    1    1   -0.68086209E-05 -0.28568727E-16
    2    1    0.40719604E-06 -0.78635015E-14
    1    2    0.32014685E-06  0.79675849E-14
    2    2   -0.68086209E-05  0.53615424E-14

  -19  -16    0
    1    1    0.27247844E-05 -0.17293770E-14
    2    1    0.40722958E-06  0.14177244E-13
    1    2    0.69731869E-05 -0.21548084E-13
    2    2    0.27247844E-05 -0.18832321E-14

  -19  -15    0
    1    1    0.18334512E-06  0.74458939E-14
    2    1   -0.18821159E-04  0.26701731E-13
    1    2    0.65159442E-05 -0.98853217E-14
    2    2    0.18334503E-06 -0.91825148E-15

  -19  -14    0
    1    1    0.18924739E-05  0.11377943E-13
    2    1    0.37467898E-06  0.24541567E-13
    1    2    0.82090840E-05 -0.32026031E-13
    2    2    0.18924739E-05 -0.15879008E-13

  -19  -13    0
    1    1   -0.74517095E-06  0.70285032E-14
    2    1   -0.78854081E-06  0.89615815E-14
    1    2   -0.54162929E-05 -0.84385623E-14
    2    2   -0.74517094E-06 -0.50560955E-14

  -19  -12    0
    1    1    0.25167413E-05  0.44798692E-14
    2    1   -0.20927778E-05  0.18431437E-14
    1    2    0.89887697E-06  0.14784181E-13
    2    2    0.25167413E-05 -0.36252468E-14

  -19  -11    0
    1    1   -0.87997692E-06  0.39212340E-14
    2    1    0.11681439E-04 -0.29187590E-13
    1    2   -0.10795677E-04  0.16251757E-13
    2    2   -0.87997690E-06 -0.42394473E-14

  -19  -10    0
    1    1    0.19556970E-05  0.15890880E-13
    2    1   -0.35119144E-05 -0.14334020E-13
    1    2   -0.92857395E-05  0.31200736E-13
    2    2    0.19556970E-05 -0.11509782E-13

  -19   -9    0
    1    1    0.19556976E-05  0.83716129E-14
    2    1    0.11681431E-04  0.14262029E-13
    1    2   -0.12436420E-04  0.33614604E-13
    2    2    0.19556976E-05 -0.12580865E-13

  -19   -8    0
    1    1   -0.87997991E-06 -0.23510924E-15
    2    1   -0.20927740E-05  0.17230141E-13
    1    2   -0.92857314E-05  0.45102810E-16
    2    2   -0.87997990E-06 -0.18982212E-14

  -19   -7    0
    1    1    0.25167492E-05 -0.13653304E-13
    2    1   -0.78855178E-06 -0.12938435E-13
    1    2   -0.10795675E-04 -0.17928367E-14
    2    2    0.25167491E-05  0.96757454E-14

  -19   -6    0
    1    1   -0.74516806E-06 -0.76617315E-14
    2    1    0.37464643E-06 -0.26841376E-13
    1    2    0.89888023E-06  0.27760780E-13
    2    2   -0.74516809E-06  0.16401756E-13

  -19   -5    0
    1    1    0.18924761E-05  0.97857378E-14
    2    1   -0.18821148E-04 -0.47253867E-14
    1    2   -0.54163162E-05  0.23437849E-13
    2    2    0.18924761E-05 -0.38517908E-14

  -19   -4    0
    1    1    0.18333388E-06  0.17367943E-13
    2    1    0.40723566E-06 -0.14286315E-13
    1    2    0.82090374E-05  0.11631321E-14
    2    2    0.18333384E-06 -0.15649320E-13

  -19   -3    0
    1    1    0.27247248E-05 -0.13038670E-13
    2    1   -0.44013698E-05 -0.10072672E-13
    1    2    0.65160328E-05  0.15504091E-13
    2    2    0.27247248E-05  0.18421056E-13

  -19   -2    0
    1    1   -0.80053163E-06 -0.15008069E-14
    2    1    0.35623697E-06  0.16176296E-14
    1    2    0.69737170E-05  0.44938012E-14
    2    2   -0.80053159E-06  0.45705085E-14

  -18  -18    0
    1    1   -0.12772973E-05 -0.14376921E-15
    2    1    0.18189598E-05 -0.11592529E-13
    1    2    0.18189598E-05  0.12185611E-13
    2    2   -0.12772973E-05 -0.15015740E-15

  -18  -17    0
    1    1    0.17938253E-05 -0.16091390E-14
    2    1    0.35534344E-06  0.83867375E-14
    1    2    0.54786322E-06 -0.39085488E-14
    2    2    0.17938253E-05 -0.18971099E-14

  -18  -16    0
    1    1   -0.18086425E-05 -0.14127588E-13
    2    1    0.18683324E-05  0.14116746E-13
    1    2    0.28913314E-05 -0.84277203E-14
    2    2   -0.18086426E-05  0.10662247E-13

  -18  -15    0
    1    1    0.13855259E-05 -0.21599693E-13
    2    1    0.57471465E-05  0.10291681E-13
    1    2   -0.50749592E-05 -0.15416054E-13
    2    2    0.13855258E-05  0.15377294E-13

  -18  -14    0
    1    1   -0.14848758E-05  0.73919278E-14
    2    1    0.11647371E-04  0.22258237E-13
    1    2   -0.13093396E-04  0.14875254E-14
    2    2   -0.14848757E-05 -0.73224033E-14

  -18  -13    0
    1    1    0.35497992E-06  0.24788114E-14
    2    1    0.71274667E-05 -0.13916819E-13
    1    2   -0.11076288E-04 -0.12577613E-13
    2    2    0.35497999E-06  0.12318705E-14

  -18  -12    0
    1    1   -0.12770345E-05 -0.26952182E-14
    2    1   -0.49977367E-05 -0.22687581E-13
    1    2    0.88959275E-05  0.28803349E-13
    2    2   -0.12770345E-05  0.71426155E-14

  -18  -11    0
    1    1   -0.42997589E-05  0.16638492E-13
    2    1    0.43818502E-05 -0.28177981E-13
    1    2   -0.45532830E-05  0.29903163E-13
    2    2   -0.42997588E-05 -0.43984998E-14

  -18  -10    0
    1    1   -0.12155757E-05  0.25661168E-13
    2    1   -0.43556471E-05 -0.37458751E-13
    1    2    0.16270427E-04  0.20012637E-13
    2    2   -0.12155757E-05 -0.26703249E-13

  -18   -9    0
    1    1   -0.36281326E-05  0.21380955E-13
    2    1   -0.43556382E-05 -0.27141484E-13
    1    2    0.11124905E-04  0.31384617E-13
    2    2   -0.36281325E-05 -0.23000265E-13

  -18   -8    0
    1    1   -0.12155742E-05  0.36256263E-14
    2    1    0.43818445E-05 -0.51191690E-14
    1    2    0.11124897E-04  0.82572837E-14
    2    2   -0.12155743E-05 -0.80243971E-14

  -18   -7    0
    1    1   -0.42997517E-05 -0.10136748E-13
    2    1   -0.49977343E-05 -0.88245383E-14
    1    2    0.16270433E-04  0.93640373E-14
    2    2   -0.42997516E-05  0.91173813E-14

  -18   -6    0
    1    1   -0.12770378E-05  0.13755761E-13
    2    1    0.71274609E-05 -0.22653754E-13
    1    2   -0.45532761E-05  0.26766783E-13
    2    2   -0.12770377E-05 -0.10021660E-13

  -18   -5    0
    1    1    0.35499464E-06  0.10967789E-13
    2    1    0.11647299E-04  0.64418956E-14
    1    2    0.88959409E-05  0.70716002E-14
    2    2    0.35499464E-06  0.32059858E-15

  -18   -4    0
    1    1   -0.14847208E-05 -0.47466371E-15
    2    1    0.57471415E-05 -0.79103391E-15
    1    2   -0.11076337E-04 -0.12470927E-13
    2    2   -0.14847208E-05 -0.16174399E-14

  -18   -3    0
    1    1    0.13858141E-05  0.21649349E-14
    2    1    0.18689090E-05  0.14597698E-14
    1    2   -0.13093831E-04 -0.12104033E-13
    2    2    0.13858140E-05  0.55691129E-14

  -18   -2    0
    1    1   -0.18105198E-05  0.11919421E-13
    2    1    0.35473336E-06  0.13342626E-13
    1    2   -0.50759934E-05 -0.15789453E-13
    2    2   -0.18105198E-05 -0.86909511E-14

  -18   -1    0
    1    1    0.17980490E-05  0.10098618E-13
    2    1    0.18192460E-05  0.14105470E-14
    1    2    0.28936496E-05 -0.32595237E-13
    2    2    0.17980490E-05 -0.33051700E-14

  -18    0    0
    1    1   -0.12769245E-05  0.12915791E-14
    2    1    0.54619307E-06 -0.47340863E-14
    1    2    0.54956507E-06  0.59903594E-15
    2    2   -0.12769244E-05  0.12962988E-14

  -17  -19    0
    1    1   -0.80046879E-06 -0.90898620E-14
    2    1   -0.61897303E-05 -0.20514957E-14
    1    2   -0.44013435E-05 -0.35761410E-14
    2    2   -0.80046882E-06  0.87615553E-14

  -17  -18    0
    1    1    0.17938253E-05 -0.12287195E-14
    2    1    0.54786324E-06 -0.51369499E-15
    1    2    0.35534341E-06  0.13953899E-13
    2    2    0.17938253E-05  0.59332557E-14

  -17  -17    0
    1    1   -0.67630292E-06  0.98615506E-14
    2    1   -0.21875229E-05  0.57185159E-14
    1    2   -0.21875230E-05 -0.12650905E-13
    2    2   -0.67630291E-06 -0.16910505E-13

  -17  -16    0
    1    1    0.45072635E-06 -0.55656976E-14
    2    1   -0.23407606E-05  0.16760465E-13
    1    2    0.25818297E-05 -0.12156075E-14
    2    2    0.45072627E-06  0.75280494E-14

  -17  -15    0
    1    1   -0.10424312E-05 -0.18499796E-13
    2    1    0.12361368E-05 -0.56378513E-14
    1    2   -0.43252626E-05 -0.82746310E-14
    2    2   -0.10424311E-05  0.15240061E-13

  -17  -14    0
    1    1    0.53830360E-06 -0.77639175E-14
    2    1   -0.13451288E-06  0.36038880E-14
    1    2    0.73981994E-05 -0.12215055E-13
    2    2    0.53830365E-06  0.69179146E-14

  -17  -13    0
    1    1    0.14092254E-05  0.65370886E-14
    2    1   -0.13540332E-04  0.48737056E-14
    1    2    0.18478950E-04 -0.91333191E-15
    2    2    0.14092254E-05 -0.13996237E-13

  -17  -12    0
    1    1   -0.24659149E-05  0.27737144E-14
    2    1   -0.80455338E-05 -0.24211536E-13
    1    2    0.48448805E-05  0.61825545E-14
    2    2   -0.24659149E-05 -0.13206667E-14

  -17  -11    0
    1    1    0.25861182E-05  0.15961570E-13
    2    1    0.42576637E-05 -0.18073217E-13
    1    2    0.36677117E-07  0.37851666E-14
    2    2    0.25861182E-05 -0.15100334E-13

  -17  -10    0
    1    1    0.22949281E-05  0.51716173E-13
    2    1   -0.15008672E-04 -0.13027773E-13
    1    2   -0.65180264E-05  0.82494775E-14
    2    2    0.22949281E-05 -0.58180240E-13

  -17   -9    0
    1    1    0.40675964E-05  0.35079470E-13
    2    1    0.12309402E-04 -0.12163881E-13
    1    2   -0.10441639E-04  0.16904880E-14
    2    2    0.40675965E-05 -0.26136591E-13

  -17   -8    0
    1    1    0.40676040E-05 -0.13523958E-13
    2    1   -0.15008663E-04 -0.18778382E-14
    1    2   -0.99558320E-05  0.18249291E-14
    2    2    0.40676040E-05  0.87109681E-14

  -17   -7    0
    1    1    0.22949232E-05 -0.99915735E-14
    2    1    0.42576585E-05 -0.13885594E-13
    1    2   -0.10441628E-04 -0.80985565E-14
    2    2    0.22949232E-05  0.73328930E-14

  -17   -6    0
    1    1    0.25861266E-05 -0.11038859E-13
    2    1   -0.80455305E-05 -0.69241488E-14
    1    2   -0.65180228E-05  0.18555470E-13
    2    2    0.25861266E-05  0.12632798E-13

  -17   -5    0
    1    1   -0.24659380E-05  0.10097663E-13
    2    1   -0.13540323E-04  0.11790915E-13
    1    2    0.36682512E-07  0.13699111E-13
    2    2   -0.24659381E-05 -0.52420904E-14

  -17   -4    0
    1    1    0.14091655E-05  0.29852097E-13
    2    1   -0.13448935E-06  0.57792313E-14
    1    2    0.48448617E-05 -0.14482339E-13
    2    2    0.14091655E-05 -0.36455105E-13

  -17   -3    0
    1    1    0.53860696E-06  0.14061099E-13
    2    1    0.12343547E-05  0.20687445E-13
    1    2    0.18479049E-04 -0.15197912E-13
    2    2    0.53860702E-06 -0.14060245E-13

  -17   -2    0
    1    1   -0.10378576E-05  0.81005691E-14
    2    1   -0.23388582E-05  0.36519615E-13
    1    2    0.73969864E-05 -0.10590704E-13
    2    2   -0.10378575E-05 -0.19857231E-14

  -17   -1    0
    1    1    0.47123877E-06  0.12303414E-13
    2    1   -0.22107931E-05  0.31976186E-13
    1    2   -0.43481535E-05 -0.22531171E-13
    2    2    0.47123878E-06 -0.12129150E-13

  -17    0    0
    1    1   -0.65569134E-06 -0.16003874E-13
    2    1    0.54906274E-06 -0.72231717E-14
    1    2    0.23318276E-05 -0.36883040E-13
    2    2   -0.65569135E-06  0.34967960E-14

  -17    1    0
    1    1    0.17980438E-05 -0.22984137E-14
    2    1   -0.61892939E-05  0.59709182E-14
    1    2   -0.22105324E-05 -0.26368664E-13
    2    2    0.17980438E-05  0.90568828E-15

  -17    2    0
    1    1   -0.80053163E-06  0.16091729E-14
    2    1    0.69725606E-05 -0.46486252E-14
    1    2    0.35469575E-06 -0.14966327E-14
    2    2   -0.80053159E-06 -0.44775381E-14

  -16  -20    0
    1    1   -0.68086246E-05  0.12612748E-13
    2    1   -0.13243762E-04 -0.99808488E-15
    1    2    0.12460340E-04 -0.15672368E-13
    2    2   -0.68086246E-05 -0.14088168E-13

  -16  -19    0
    1    1    0.27247844E-05  0.18184042E-13
    2    1    0.69731869E-05 -0.57102760E-14
    1    2    0.40722956E-06 -0.10639059E-13
    2    2    0.27247844E-05 -0.22275008E-13

  -16  -18    0
    1    1   -0.18086426E-05  0.64550416E-14
    2    1    0.28913314E-05 -0.85938201E-14
    1    2    0.18683324E-05  0.18400212E-13
    2    2   -0.18086425E-05  0.82227248E-15

  -16  -17    0
    1    1    0.45072628E-06 -0.15045582E-13
    2    1    0.25818298E-05  0.73391813E-14
    1    2   -0.23407606E-05  0.17110011E-13
    2    2    0.45072636E-06  0.14466997E-13

  -16  -16    0
    1    1   -0.33000893E-05 -0.95991466E-14
    2    1   -0.16492564E-05 -0.20131466E-14
    1    2   -0.16492565E-05 -0.19099305E-14
    2    2   -0.33000892E-05  0.43529904E-14

  -16  -15    0
    1    1    0.29003249E-06  0.34077558E-14
    2    1    0.72875327E-05  0.23189783E-13
    1    2   -0.32866342E-05  0.12706849E-14
    2    2    0.29003250E-06 -0.11693120E-15

  -16  -14    0
    1    1    0.24813614E-05 -0.15567896E-13
    2    1   -0.94294125E-05  0.23410093E-14
    1    2    0.31968373E-05 -0.21545266E-14
    2    2    0.24813614E-05  0.11310343E-13

  -16  -13    0
    1    1   -0.10569638E-05  0.11987156E-13
    2    1    0.47640802E-05 -0.24450927E-14
    1    2   -0.12597843E-04 -0.13721663E-14
    2    2   -0.10569638E-05 -0.15496122E-13

  -16  -12    0
    1    1    0.21137819E-05  0.15461753E-13
    2    1    0.59295870E-05 -0.59917349E-14
    1    2   -0.84476265E-05  0.35015393E-14
    2    2    0.21137819E-05 -0.18836495E-13

  -16  -11    0
    1    1   -0.30751252E-05 -0.15246593E-14
    2    1    0.10220511E-04 -0.44287490E-14
    1    2   -0.17336165E-04 -0.16332422E-13
    2    2   -0.30751252E-05 -0.89327959E-14

  -16  -10    0
    1    1    0.14307394E-06  0.51289268E-14
    2    1    0.44782571E-05  0.62484740E-14
    1    2    0.12129675E-04 -0.51347815E-14
    2    2    0.14307400E-06 -0.18508957E-14

  -16   -9    0
    1    1   -0.40652350E-05  0.11274076E-13
    2    1    0.53938046E-05  0.12340823E-13
    1    2   -0.12861546E-06 -0.96493993E-14
    2    2   -0.40652350E-05 -0.14873085E-13

  -16   -8    0
    1    1   -0.25023541E-05 -0.12006889E-13
    2    1    0.53937937E-05  0.74515047E-14
    1    2    0.15368343E-04  0.94481714E-14
    2    2   -0.25023542E-05  0.13238813E-13

  -16   -7    0
    1    1   -0.40652359E-05 -0.63287049E-14
    2    1    0.44782597E-05 -0.53290705E-14
    1    2    0.15368353E-04  0.82208546E-14
    2    2   -0.40652360E-05 -0.17394398E-14

  -16   -6    0
    1    1    0.14308377E-06 -0.67734447E-14
    2    1    0.10220508E-04 -0.10238338E-13
    1    2   -0.12862179E-06 -0.11201109E-13
    2    2    0.14308375E-06 -0.70150591E-15

  -16   -5    0
    1    1   -0.30751429E-05 -0.65920034E-14
    2    1    0.59295524E-05  0.27287200E-14
    1    2    0.12129690E-04 -0.11605300E-14
    2    2   -0.30751429E-05  0.39352744E-14

  -16   -4    0
    1    1    0.21137893E-05  0.27373313E-13
    2    1    0.47641319E-05  0.18417559E-13
    1    2   -0.17336177E-04 -0.99720579E-14
    2    2    0.21137894E-05 -0.33792237E-13

  -16   -3    0
    1    1   -0.10571086E-05  0.28683958E-13
    2    1   -0.94289436E-05  0.11529623E-13
    1    2   -0.84475715E-05 -0.25933032E-13
    2    2   -0.10571085E-05 -0.33909595E-13

  -16   -2    0
    1    1    0.24797882E-05  0.52062130E-14
    2    1    0.72900077E-05  0.10909054E-13
    1    2   -0.12597312E-04 -0.31481260E-13
    2    2    0.24797882E-05 -0.74069084E-15

  -16   -1    0
    1    1    0.31045613E-06 -0.45806187E-14
    2    1   -0.18994289E-05  0.30849455E-13
    1    2    0.31983645E-05 -0.27159264E-14
    2    2    0.31045616E-06  0.72428093E-15

  -16    0    0
    1    1   -0.34741829E-05  0.23854169E-13
    2    1    0.23316132E-05  0.28631611E-13
    1    2   -0.35372016E-05 -0.13400739E-13
    2    2   -0.34741828E-05 -0.12527685E-13

  -16    1    0
    1    1    0.47119230E-06  0.24091514E-14
    2    1    0.28938320E-05  0.14468895E-13
    1    2   -0.18998749E-05 -0.26671807E-13
    2    2    0.47119234E-06 -0.34862521E-15

  -16    2    0
    1    1   -0.18104973E-05  0.48804548E-14
    2    1    0.69736895E-05 -0.10386657E-13
    1    2   -0.23391772E-05 -0.13965391E-13
    2    2   -0.18104973E-05 -0.11355771E-13

  -16    3    0
    1    1    0.27247212E-05 -0.53955321E-15
    2    1   -0.13243770E-04 -0.18423631E-13
    1    2    0.18689251E-05  0.47678875E-14
    2    2    0.27247212E-05  0.19266273E-14

  -16    4    0
    1    1   -0.68086209E-05  0.22551405E-16
    2    1    0.32006666E-06 -0.82408039E-14
    1    2    0.40724035E-06  0.82303955E-14
    2    2   -0.68086209E-05 -0.53818712E-14

  -15  -21    0
    1    1   -0.24810588E-05  0.21888492E-14
    2    1   -0.94661421E-05  0.25510658E-13
    1    2   -0.59874133E-05 -0.16698890E-13
    2    2   -0.24810588E-05  0.92613464E-15

  -15  -20    0
    1    1    0.14780910E-05  0.14856436E-13
    2    1    0.32009334E-06  0.25126819E-13
    1    2    0.47517524E-05 -0.19678053E-13
    2    2    0.14780909E-05 -0.23129014E-13

  -15  -19    0
    1    1    0.18334506E-06 -0.81341455E-14
    2    1    0.65159443E-05  0.68859848E-14
    1    2   -0.18821159E-04 -0.25640080E-13
    2    2    0.18334513E-06  0.92382292E-14

  -15  -18    0
    1    1    0.13855258E-05  0.21929615E-14
    2    1   -0.50749592E-05 -0.14697445E-13
    1    2    0.57471465E-05 -0.11230600E-13
    2    2    0.13855259E-05 -0.74240202E-14

  -15  -17    0
    1    1   -0.10424311E-05  0.14430731E-15
    2    1   -0.43252626E-05  0.43541559E-15
    1    2    0.12361368E-05  0.13732071E-13
    2    2   -0.10424311E-05 -0.34843547E-15

  -15  -16    0
    1    1    0.29003250E-06  0.12500851E-14
    2    1   -0.32866342E-05  0.25066754E-15
    1    2    0.72875327E-05 -0.74679846E-14
    2    2    0.29003250E-06 -0.76425953E-14

  -15  -15    0
    1    1   -0.49473320E-06 -0.65721625E-14
    2    1   -0.29098569E-06 -0.18145208E-14
    1    2   -0.29098572E-06 -0.13400739E-13
    2    2   -0.49473322E-06  0.10605015E-13

  -15  -14    0
    1    1   -0.50094855E-06 -0.27696487E-13
    2    1    0.10619490E-05 -0.11914948E-13
    1    2    0.21275452E-05  0.30340314E-14
    2    2   -0.50094844E-06  0.41740537E-13

  -15  -13    0
    1    1   -0.32032637E-05 -0.15782948E-13
    2    1    0.30985281E-05  0.73005837E-14
    1    2    0.14703793E-05  0.20052536E-13
    2    2   -0.32032636E-05  0.18291900E-13

  -15  -12    0
    1    1   -0.24105936E-05  0.36248185E-13
    2    1    0.24031466E-05  0.21834097E-13
    1    2    0.33213921E-05 -0.21202658E-13
    2    2   -0.24105936E-05 -0.19384993E-13

  -15  -11    0
    1    1    0.30414988E-05  0.26790094E-14
    2    1   -0.98046368E-05  0.17293458E-13
    1    2    0.26255175E-04 -0.38776274E-13
    2    2    0.30414987E-05 -0.10298836E-14

  -15  -10    0
    1    1    0.11249159E-05 -0.27616256E-14
    2    1   -0.10892028E-04 -0.10373646E-14
    1    2   -0.19763012E-05 -0.32456676E-13
    2    2    0.11249160E-05 -0.15252014E-14

  -15   -9    0
    1    1    0.75809805E-05 -0.81495140E-14
    2    1   -0.43315847E-06 -0.60047453E-14
    1    2    0.26320218E-05  0.13799725E-14
    2    2    0.75809805E-05  0.24126751E-14

  -15   -8    0
    1    1    0.33324642E-05 -0.36770175E-14
    2    1   -0.19819832E-04 -0.14892601E-13
    1    2   -0.10221266E-04  0.63577615E-14
    2    2    0.33324642E-05  0.36837395E-14

  -15   -7    0
    1    1    0.33324768E-05 -0.74246165E-15
    2    1   -0.43316122E-06  0.53715712E-14
    1    2   -0.12969831E-04  0.13739877E-13
    2    2    0.33324767E-05  0.22516440E-14

  -15   -6    0
    1    1    0.75809764E-05  0.11743915E-13
    2    1   -0.10892035E-04  0.13267165E-13
    1    2   -0.10221265E-04 -0.11992143E-13
    2    2    0.75809763E-05 -0.65307460E-14

  -15   -5    0
    1    1    0.11249217E-05  0.83618822E-14
    2    1   -0.98046180E-05  0.26818825E-14
    1    2    0.26320091E-05 -0.19457526E-13
    2    2    0.11249217E-05 -0.14209865E-13

  -15   -4    0
    1    1    0.30414453E-05  0.32614787E-13
    2    1    0.24031858E-05  0.19901398E-13
    1    2   -0.19763374E-05 -0.10441951E-13
    2    2    0.30414452E-05 -0.27554327E-13

  -15   -3    0
    1    1   -0.24106973E-05  0.55351600E-14
    2    1    0.30986843E-05  0.41470978E-13
    1    2    0.26255247E-04 -0.13858637E-13
    2    2   -0.24106973E-05 -0.25379728E-14

  -15   -2    0
    1    1   -0.32028080E-05  0.60615778E-14
    2    1    0.10605973E-05  0.23703695E-13
    1    2    0.33216537E-05 -0.36304727E-13
    2    2   -0.32028079E-05 -0.54073228E-14

  -15   -1    0
    1    1   -0.49622461E-06 -0.31866884E-13
    2    1   -0.31329515E-06  0.13220761E-13
    1    2    0.14676056E-05 -0.28399592E-13
    2    2   -0.49622456E-06  0.25848193E-13

  -15    0    0
    1    1   -0.47439982E-06  0.31978543E-14
    2    1   -0.35374340E-05  0.37948377E-13
    1    2    0.21300077E-05 -0.21523148E-13
    2    2   -0.47439986E-06 -0.26191072E-14

  -15    1    0
    1    1    0.31041790E-06  0.18961558E-13
    2    1   -0.43476187E-05  0.26946327E-13
    1    2   -0.31302065E-06 -0.20090700E-13
    2    2    0.31041791E-06 -0.11661109E-13

  -15    2    0
    1    1   -0.10378772E-05 -0.35863239E-14
    2    1   -0.50759659E-05  0.56803520E-14
    1    2    0.72896851E-05 -0.66136333E-14
    2    2   -0.10378772E-05  0.27121859E-14

  -15    3    0
    1    1    0.13858067E-05 -0.19694804E-13
    2    1    0.65160310E-05  0.39699147E-14
    1    2    0.12343573E-05  0.49326862E-14
    2    2    0.13858068E-05  0.22323126E-13

  -15    4    0
    1    1    0.18333357E-06 -0.24642831E-14
    2    1    0.32013057E-06  0.39239445E-14
    1    2    0.57471343E-05 -0.29351521E-14
    2    2    0.18333359E-06 -0.39854730E-14

  -15    5    0
    1    1    0.14780725E-05  0.74435900E-15
    2    1   -0.94661432E-05  0.28271656E-13
    1    2   -0.18821150E-04 -0.11906275E-13
    2    2    0.14780725E-05 -0.16618109E-14

  -15    6    0
    1    1   -0.24810574E-05 -0.20327815E-13
    2    1    0.41527284E-05 -0.48927876E-14
    1    2    0.47517446E-05 -0.24411896E-13
    2    2   -0.24810573E-05  0.17432182E-13

  -14  -22    0
    1    1   -0.24183941E-05 -0.22105451E-14
    2    1    0.67597248E-05 -0.92957010E-14
    1    2   -0.11723606E-04  0.26664860E-13
    2    2   -0.24183940E-05  0.44730749E-14

  -14  -21    0
    1    1    0.27932803E-05 -0.25333082E-13
    2    1    0.41527441E-05  0.75970046E-14
    1    2    0.48332067E-05  0.18013585E-13
    2    2    0.27932804E-05  0.35826539E-13

  -14  -20    0
    1    1   -0.17577491E-05  0.88178163E-14
    2    1    0.33469218E-05  0.88123953E-15
    1    2   -0.46303925E-05  0.92044428E-14
    2    2   -0.17577491E-05 -0.13313555E-13

  -14  -19    0
    1    1    0.18924739E-05 -0.62941189E-14
    2    1    0.82090840E-05  0.11038913E-13
    1    2    0.37467895E-06 -0.72004035E-14
    2    2    0.18924739E-05  0.12467783E-13

  -14  -18    0
    1    1   -0.14848758E-05 -0.12468542E-13
    2    1   -0.13093396E-04 -0.90396440E-14
    1    2    0.11647371E-04  0.74306880E-14
    2    2   -0.14848757E-05  0.12670393E-13

  -14  -17    0
    1    1    0.53830361E-06 -0.13573452E-13
    2    1    0.73981994E-05 -0.97985856E-14
    1    2   -0.13451286E-06  0.83934595E-14
    2    2    0.53830363E-06  0.57985301E-14

  -14  -16    0
    1    1    0.24813614E-05 -0.91384691E-14
    2    1    0.31968373E-05  0.48494195E-14
    1    2   -0.94294124E-05 -0.29056618E-14
    2    2    0.24813614E-05  0.31388737E-14

  -14  -15    0
    1    1   -0.50094844E-06 -0.72399768E-14
    2    1    0.21275452E-05  0.14968062E-13
    1    2    0.10619491E-05 -0.34208747E-14
    2    2   -0.50094856E-06  0.38892500E-14

  -14  -14    0
    1    1    0.17643082E-06 -0.96123196E-14
    2    1   -0.79638910E-05 -0.12238474E-14
    1    2   -0.79638910E-05 -0.12388528E-13
    2    2    0.17643082E-06  0.10730891E-13

  -14  -13    0
    1    1    0.51615377E-05 -0.15605681E-13
    2    1    0.38116325E-05  0.18244954E-13
    1    2    0.83922537E-05 -0.83023866E-14
    2    2    0.51615377E-05  0.23553804E-13

  -14  -12    0
    1    1    0.30272584E-05  0.99629506E-14
    2    1   -0.18068153E-04  0.48782159E-13
    1    2    0.45911437E-05 -0.44408921E-15
    2    2    0.30272584E-05 -0.79925758E-14

  -14  -11    0
    1    1   -0.19017005E-05 -0.39279561E-14
    2    1    0.66953726E-05  0.54653330E-13
    1    2   -0.14165795E-04 -0.23874999E-13
    2    2   -0.19017005E-05  0.13721446E-13

  -14  -10    0
    1    1    0.26345002E-05 -0.18842404E-13
    2    1    0.15273006E-04  0.49691154E-14
    1    2   -0.13862215E-04 -0.14079883E-13
    2    2    0.26345002E-05  0.14686819E-13

  -14   -9    0
    1    1   -0.29983766E-05 -0.81893043E-14
    2    1    0.14031731E-04 -0.77238563E-14
    1    2   -0.13555009E-04 -0.55259616E-14
    2    2   -0.29983766E-05  0.58768637E-14

  -14   -8    0
    1    1   -0.87000669E-05  0.13053089E-13
    2    1    0.13957133E-04 -0.66240416E-14
    1    2    0.89484247E-06  0.56716784E-14
    2    2   -0.87000669E-05 -0.81062273E-14

  -14   -7    0
    1    1   -0.78647661E-05 -0.24027438E-13
    2    1    0.13957135E-04  0.18813943E-13
    1    2   -0.44061330E-05 -0.62424024E-14
    2    2   -0.78647661E-05  0.25842718E-13

  -14   -6    0
    1    1   -0.87000726E-05 -0.15304625E-13
    2    1    0.14031725E-04  0.16331554E-13
    1    2   -0.44061299E-05 -0.67099104E-14
    2    2   -0.87000726E-05  0.20065397E-13

  -14   -5    0
    1    1   -0.29983801E-05  0.14256242E-14
    2    1    0.15272962E-04  0.13554479E-13
    1    2    0.89483602E-06  0.27649324E-14
    2    2   -0.29983801E-05  0.36542424E-14

  -14   -4    0
    1    1    0.26345907E-05  0.34009893E-14
    2    1    0.66953474E-05  0.10621523E-13
    1    2   -0.13555028E-04  0.79043360E-14
    2    2    0.26345908E-05 -0.10980710E-14

  -14   -3    0
    1    1   -0.19015282E-05 -0.80781668E-14
    2    1   -0.18067910E-04  0.87924459E-14
    1    2   -0.13862460E-04  0.40137164E-14
    2    2   -0.19015282E-05  0.17974947E-13

  -14   -2    0
    1    1    0.30264725E-05 -0.28633237E-14
    2    1    0.38105456E-05  0.18980477E-13
    1    2   -0.14166460E-04 -0.85057829E-14
    2    2    0.30264724E-05 -0.97993038E-14

  -14   -1    0
    1    1    0.51643850E-05 -0.69429597E-15
    2    1   -0.79657070E-05  0.12101431E-13
    1    2    0.45925098E-05  0.11304326E-13
    2    2    0.51643850E-05 -0.54747602E-14

  -14    0    0
    1    1    0.17383362E-06 -0.10502368E-13
    2    1    0.21295215E-05  0.20687445E-13
    1    2    0.83941061E-05 -0.11569738E-13
    2    2    0.17383362E-06  0.32950530E-14

  -14    1    0
    1    1   -0.49623957E-06  0.86062884E-14
    2    1    0.31985145E-05  0.39300160E-14
    1    2   -0.79656148E-05 -0.16852839E-14
    2    2   -0.49623962E-06 -0.82279561E-14

  -14    2    0
    1    1    0.24798052E-05  0.44465299E-14
    2    1    0.73970065E-05 -0.81054954E-14
    1    2    0.10605784E-05  0.71791531E-14
    2    2    0.24798052E-05 -0.22425638E-14

  -14    3    0
    1    1    0.53860070E-06 -0.68016339E-14
    2    1   -0.13093814E-04 -0.57636187E-14
    1    2   -0.94289304E-05  0.11356367E-13
    2    2    0.53860074E-06 -0.14989095E-14

  -14    4    0
    1    1   -0.14847222E-05  0.99483681E-14
    2    1    0.82090476E-05 -0.44721171E-14
    1    2   -0.13450358E-06  0.11109169E-13
    2    2   -0.14847223E-05 -0.12766264E-13

  -14    5    0
    1    1    0.18924786E-05  0.58658590E-14
    2    1    0.33469221E-05  0.15025307E-13
    1    2    0.11647300E-04 -0.10058794E-13
    2    2    0.18924785E-05 -0.11081359E-13

  -14    6    0
    1    1   -0.17577549E-05  0.32102684E-14
    2    1    0.41527492E-05  0.18604909E-14
    1    2    0.37465928E-06  0.94134769E-14
    2    2   -0.17577549E-05  0.18159302E-14

  -14    7    0
    1    1    0.27932808E-05 -0.13451696E-14
    2    1    0.67597210E-05 -0.13478801E-13
    1    2   -0.46303820E-05 -0.10532374E-13
    2    2    0.27932809E-05 -0.78154172E-14

  -14    8    0
    1    1   -0.24183928E-05  0.69574338E-14
    2    1   -0.24085978E-06 -0.14852702E-13
    1    2    0.48332097E-05  0.69822620E-14
    2    2   -0.24183928E-05 -0.29213828E-14

  -13  -23    0
    1    1   -0.75515469E-06 -0.24362217E-14
    2    1   -0.42464034E-05 -0.23679161E-13
    1    2   -0.12342466E-05  0.39065530E-13
    2    2   -0.75515466E-06  0.55294673E-14

  -13  -22    0
    1    1    0.14551285E-05  0.37039124E-14
    2    1   -0.24087133E-06 -0.17228623E-13
    1    2    0.39008745E-05 -0.10273683E-13
    2    2    0.14551285E-05 -0.11679568E-14

  -13  -21    0
    1    1   -0.23146331E-05 -0.71991024E-15
    2    1   -0.92326855E-05 -0.11331214E-13
    1    2    0.18153370E-05  0.54270824E-14
    2    2   -0.23146331E-05  0.18340364E-14

  -13  -20    0
    1    1    0.16332613E-05  0.14679230E-13
    2    1   -0.13821503E-05 -0.12303526E-14
    1    2    0.72514490E-05  0.12078012E-13
    2    2    0.16332613E-05 -0.94996710E-14

  -13  -19    0
    1    1   -0.74517095E-06  0.69157733E-14
    2    1   -0.54162928E-05  0.44851275E-14
    1    2   -0.78854081E-06  0.32465350E-14
    2    2   -0.74517095E-06 -0.70634687E-14

  -13  -18    0
    1    1    0.35497998E-06 -0.13471049E-13
    2    1   -0.11076288E-04 -0.67983813E-14
    1    2    0.71274667E-05 -0.52588142E-14
    2    2    0.35497993E-06  0.12116718E-13

  -13  -17    0
    1    1    0.14092254E-05 -0.16565850E-13
    2    1    0.18478950E-04 -0.49396251E-14
    1    2   -0.13540332E-04 -0.11177691E-13
    2    2    0.14092254E-05  0.18519366E-13

  -13  -16    0
    1    1   -0.10569638E-05 -0.15191082E-13
    2    1   -0.12597843E-04  0.26081567E-14
    1    2    0.47640802E-05 -0.98228717E-14
    2    2   -0.10569638E-05  0.12765288E-13

  -13  -15    0
    1    1   -0.32032636E-05 -0.18064055E-13
    2    1    0.14703793E-05 -0.17616117E-13
    1    2    0.30985281E-05 -0.59830613E-14
    2    2   -0.32032637E-05  0.18903119E-13

  -13  -14    0
    1    1    0.51615377E-05  0.84443086E-14
    2    1    0.83922536E-05  0.19845237E-14
    1    2    0.38116325E-05 -0.45146178E-14
    2    2    0.51615377E-05 -0.20382405E-13

  -13  -13    0
    1    1    0.45330760E-06 -0.12461115E-13
    2    1   -0.16167674E-05 -0.14410348E-13
    1    2   -0.16167674E-05 -0.13022569E-13
    2    2    0.45330760E-06  0.79292042E-14

  -13  -12    0
    1    1   -0.26467355E-05 -0.15913919E-14
    2    1    0.16471801E-04 -0.32812295E-14
    1    2   -0.74347031E-05  0.10308594E-13
    2    2   -0.26467356E-05  0.81581877E-14

  -13  -11    0
    1    1   -0.70649356E-05 -0.93279876E-14
    2    1    0.10908692E-05 -0.17251825E-14
    1    2   -0.77468558E-05  0.23260907E-13
    2    2   -0.70649356E-05  0.14898239E-13

  -13  -10    0
    1    1   -0.35534676E-05 -0.16176730E-13
    2    1    0.45258266E-05 -0.65468464E-14
    1    2   -0.21512355E-05  0.20788926E-13
    2    2   -0.35534676E-05  0.12455152E-13

  -13   -9    0
    1    1    0.26145412E-05 -0.12924286E-13
    2    1   -0.22181803E-04 -0.11417083E-13
    1    2    0.29718762E-04  0.23726680E-13
    2    2    0.26145413E-05  0.12015318E-13

  -13   -8    0
    1    1    0.22177249E-05 -0.27975018E-13
    2    1   -0.20433539E-04 -0.51000870E-15
    1    2    0.15887785E-04  0.15525775E-13
    2    2    0.22177250E-05  0.14960472E-13

  -13   -7    0
    1    1    0.84637479E-06 -0.52736407E-14
    2    1   -0.21503491E-04  0.11842090E-13
    1    2    0.14818598E-04  0.37123082E-14
    2    2    0.84637477E-06  0.61869048E-14

  -13   -6    0
    1    1    0.84636588E-06 -0.18229037E-13
    2    1   -0.20433550E-04  0.18663456E-14
    1    2    0.15131580E-04 -0.35065267E-14
    2    2    0.84636598E-06  0.22776343E-13

  -13   -5    0
    1    1    0.22177258E-05 -0.18232530E-13
    2    1   -0.22181794E-04 -0.11447629E-13
    1    2    0.14818594E-04 -0.14926611E-14
    2    2    0.22177259E-05  0.25723519E-13

  -13   -4    0
    1    1    0.26145432E-05 -0.93011739E-14
    2    1    0.45258486E-05  0.17299530E-14
    1    2    0.15887814E-04  0.15392201E-13
    2    2    0.26145434E-05  0.11319274E-13

  -13   -3    0
    1    1   -0.35533049E-05 -0.63686171E-14
    2    1    0.10898883E-05  0.99078731E-14
    1    2    0.29718805E-04  0.10377550E-13
    2    2   -0.35533048E-05  0.14339617E-13

  -13   -2    0
    1    1   -0.70623813E-05 -0.12149244E-13
    2    1    0.16472748E-04 -0.56187693E-14
    1    2   -0.21518336E-05  0.74970412E-14
    2    2   -0.70623813E-05  0.19704724E-13

  -13   -1    0
    1    1   -0.26353472E-05 -0.54514498E-14
    2    1   -0.16296766E-05 -0.53776428E-14
    1    2   -0.77596528E-05  0.19545129E-13
    2    2   -0.26353473E-05  0.25447851E-14

  -13    0    0
    1    1    0.46460787E-06 -0.38561277E-14
    2    1    0.83937794E-05  0.81297816E-14
    1    2   -0.75736911E-05  0.10754418E-13
    2    2    0.46460776E-06  0.23798780E-14

  -13    1    0
    1    1    0.51643710E-05 -0.85031808E-14
    2    1    0.14676071E-05 -0.84151436E-14
    1    2   -0.16294795E-05 -0.20776783E-13
    2    2    0.51643710E-05  0.10807327E-14

  -13    2    0
    1    1   -0.32028046E-05 -0.12089776E-13
    2    1   -0.12597308E-04 -0.35336317E-14
    1    2    0.38105425E-05 -0.15076482E-13
    2    2   -0.32028046E-05  0.11600259E-13

  -13    3    0
    1    1   -0.10571097E-05 -0.17884023E-13
    2    1    0.18479039E-04 -0.28203134E-13
    1    2    0.30986628E-05 -0.13371249E-13
    2    2   -0.10571097E-05  0.16372971E-13

  -13    4    0
    1    1    0.14091740E-05  0.51423709E-15
    2    1   -0.11076341E-04 -0.68322084E-14
    1    2    0.47641344E-05  0.71080294E-14
    2    2    0.14091740E-05 -0.31535646E-14

  -13    5    0
    1    1    0.35499118E-06 -0.14609624E-13
    2    1   -0.54163092E-05 -0.74922707E-14
    1    2   -0.13540327E-04 -0.38823111E-14
    2    2    0.35499108E-06  0.71779063E-14

  -13    6    0
    1    1   -0.74516812E-06 -0.90233810E-14
    2    1   -0.13821449E-05 -0.18830423E-14
    1    2    0.71274583E-05 -0.85842791E-14
    2    2   -0.74516819E-06  0.79123448E-14

  -13    7    0
    1    1    0.16332649E-05  0.93523279E-15
    2    1   -0.92326891E-05 -0.12004286E-14
    1    2   -0.78854318E-06  0.48164597E-14
    2    2    0.16332649E-05 -0.10698907E-13

  -13    8    0
    1    1   -0.23146344E-05 -0.26630174E-14
    2    1   -0.24086621E-06 -0.81913643E-14
    1    2    0.72514475E-05 -0.54886651E-14
    2    2   -0.23146344E-05 -0.18564794E-14

  -13    9    0
    1    1    0.14551319E-05  0.72017587E-14
    2    1   -0.42464022E-05  0.99018016E-14
    1    2    0.18153375E-05  0.36325110E-14
    2    2    0.14551318E-05 -0.76952062E-14

  -13   10    0
    1    1   -0.75515351E-06 -0.13306901E-13
    2    1   -0.23873279E-05  0.37596662E-13
    1    2    0.39008670E-05 -0.10604365E-13
    2    2   -0.75515351E-06  0.16529123E-13

  -12  -24    0
    1    1   -0.54923667E-05 -0.11682189E-13
    2    1   -0.15504725E-06 -0.21960917E-13
    1    2    0.46311567E-05  0.15580844E-13
    2    2   -0.54923667E-05  0.12463103E-13

  -12  -23    0
    1    1    0.26911550E-05 -0.55703258E-14
    2    1   -0.23873217E-05 -0.11304976E-13
    1    2    0.46311629E-05  0.84556927E-14
    2    2    0.26911549E-05  0.14321470E-13

  -12  -22    0
    1    1   -0.50481376E-05  0.96165480E-14
    2    1    0.48762990E-05  0.13425892E-13
    1    2   -0.57919029E-05  0.79641155E-14
    2    2   -0.50481376E-05 -0.70209002E-14

  -12  -21    0
    1    1    0.26502617E-05 -0.19310454E-14
    2    1   -0.76433749E-06 -0.52197829E-14
    1    2    0.36276946E-05 -0.15756060E-13
    2    2    0.26502617E-05 -0.38330613E-14

  -12  -20    0
    1    1    0.17999434E-06  0.11662546E-13
    2    1    0.11142300E-04 -0.14095496E-13
    1    2   -0.10261505E-04 -0.24893282E-15
    2    2    0.17999438E-06 -0.41907938E-14

  -12  -19    0
    1    1    0.25167413E-05  0.32557561E-13
    2    1    0.89887698E-06 -0.77195195E-15
    1    2   -0.20927778E-05  0.45796700E-14
    2    2    0.25167413E-05 -0.37562455E-13

  -12  -18    0
    1    1   -0.12770345E-05  0.11781646E-13
    2    1    0.88959275E-05  0.13495281E-13
    1    2   -0.49977367E-05  0.21150616E-13
    2    2   -0.12770345E-05 -0.65801314E-14

  -12  -17    0
    1    1   -0.24659149E-05 -0.74328564E-14
    2    1    0.48448805E-05  0.24830832E-13
    1    2   -0.80455338E-05 -0.20335296E-13
    2    2   -0.24659149E-05  0.15588225E-13

  -12  -16    0
    1    1    0.21137819E-05  0.61915533E-14
    2    1   -0.84476265E-05  0.15807668E-13
    1    2    0.59295870E-05 -0.13979269E-13
    2    2    0.21137819E-05  0.95471049E-14

  -12  -15    0
    1    1   -0.24105936E-05  0.10461846E-13
    2    1    0.33213921E-05  0.36923589E-14
    1    2    0.24031466E-05 -0.11464787E-13
    2    2   -0.24105936E-05 -0.10294445E-13

  -12  -14    0
    1    1    0.30272584E-05  0.40286242E-14
    2    1    0.45911436E-05  0.45605880E-14
    1    2   -0.18068153E-04 -0.32963215E-13
    2    2    0.30272584E-05 -0.62843611E-14

  -12  -13    0
    1    1   -0.26467356E-05  0.26675168E-14
    2    1   -0.74347031E-05  0.13423290E-13
    1    2    0.16471801E-04  0.51087606E-14
    2    2   -0.26467355E-05 -0.95398949E-15

  -12  -12    0
    1    1   -0.68978758E-05 -0.27273919E-13
    2    1   -0.79661319E-05 -0.11463053E-13
    1    2   -0.79661319E-05 -0.76058951E-14
    2    2   -0.68978758E-05  0.30546420E-13

  -12  -11    0
    1    1    0.86457398E-05 -0.25591996E-13
    2    1   -0.10695884E-05 -0.14100700E-13
    1    2    0.16696511E-04 -0.19238083E-14
    2    2    0.86457397E-05  0.28188498E-13

  -12  -10    0
    1    1    0.14216065E-05 -0.88458429E-14
    2    1   -0.16440962E-04 -0.13486608E-13
    1    2    0.89720119E-05  0.20322286E-14
    2    2    0.14216065E-05  0.12853406E-13

  -12   -9    0
    1    1   -0.74153455E-07  0.17715484E-13
    2    1   -0.31887337E-05 -0.33034339E-13
    1    2   -0.78668562E-05  0.11463053E-13
    2    2   -0.74153323E-07 -0.20584175E-13

  -12   -8    0
    1    1    0.91532048E-06 -0.21124676E-13
    2    1    0.17926294E-04 -0.35077843E-13
    1    2   -0.15309953E-04  0.16442576E-13
    2    2    0.91532049E-06  0.15975733E-13

  -12   -7    0
    1    1    0.23622925E-05 -0.33699104E-14
    2    1    0.21166645E-04 -0.11305843E-13
    1    2   -0.13959176E-04  0.11112422E-13
    2    2    0.23622924E-05 -0.51592912E-14

  -12   -6    0
    1    1    0.10505909E-05  0.98088952E-14
    2    1    0.21166663E-04  0.82033188E-14
    1    2   -0.23157390E-04 -0.18453053E-13
    2    2    0.10505909E-05 -0.19938090E-13

  -12   -5    0
    1    1    0.23623213E-05 -0.12054905E-14
    2    1    0.17926294E-04  0.45805373E-14
    1    2   -0.23157387E-04 -0.10472959E-13
    2    2    0.23623212E-05  0.19041165E-14

  -12   -4    0
    1    1    0.91531019E-06 -0.11518686E-13
    2    1   -0.31887226E-05  0.31146960E-14
    1    2   -0.13959206E-04 -0.23970409E-13
    2    2    0.91531018E-06  0.26013371E-13

  -12   -3    0
    1    1   -0.74165129E-07 -0.56066263E-14
    2    1   -0.16440652E-04 -0.16567043E-13
    1    2   -0.15309975E-04  0.35995512E-16
    2    2   -0.74165121E-07  0.12287101E-13

  -12   -2    0
    1    1    0.14205305E-05 -0.12371208E-13
    2    1   -0.10680584E-05 -0.28088643E-13
    1    2   -0.78665803E-05  0.10965187E-13
    2    2    0.14205305E-05  0.95539353E-14

  -12   -1    0
    1    1    0.86571400E-05  0.11380328E-14
    2    1   -0.81053516E-05 -0.34258187E-13
    1    2    0.89727442E-05  0.30093115E-13
    2    2    0.86571400E-05 -0.87449579E-14

  -12    0    0
    1    1   -0.69947947E-05  0.12056328E-13
    2    1   -0.75738581E-05  0.10325941E-13
    1    2    0.16556922E-04  0.40643704E-13
    2    2   -0.69947947E-05 -0.11679134E-13

  -12    1    0
    1    1   -0.26353745E-05  0.13494089E-13
    2    1    0.45926074E-05  0.27654094E-13
    1    2   -0.81056824E-05 -0.91237781E-14
    2    2   -0.26353745E-05 -0.14619816E-13

  -12    2    0
    1    1    0.30264838E-05 -0.12307321E-13
    2    1    0.33216491E-05  0.33428121E-13
    1    2    0.16472524E-04 -0.42710627E-13
    2    2    0.30264837E-05  0.63834029E-14

  -12    3    0
    1    1   -0.24106942E-05 -0.99270093E-14
    2    1   -0.84475651E-05  0.13976667E-13
    1    2   -0.18067900E-04 -0.44211163E-13
    2    2   -0.24106942E-05  0.19810596E-13

  -12    4    0
    1    1    0.21137809E-05  0.52762157E-14
    2    1    0.48448781E-05 -0.90439808E-14
    1    2    0.24031720E-05 -0.14654077E-13
    2    2    0.21137810E-05 -0.44769418E-14

  -12    5    0
    1    1   -0.24659325E-05 -0.17018288E-13
    2    1    0.88959346E-05  0.23205396E-13
    1    2    0.59295662E-05 -0.20795865E-13
    2    2   -0.24659325E-05  0.15654795E-13

  -12    6    0
    1    1   -0.12770363E-05 -0.13906140E-13
    2    1    0.89887657E-06 -0.14857907E-14
    1    2   -0.80455250E-05 -0.26390348E-13
    2    2   -0.12770363E-05  0.11239273E-13

  -12    7    0
    1    1    0.25167478E-05  0.24540537E-13
    2    1    0.11142294E-04 -0.48711035E-14
    1    2   -0.49977434E-05 -0.75035464E-14
    2    2    0.25167478E-05 -0.28020121E-13

  -12    8    0
    1    1    0.17999052E-06  0.10660011E-13
    2    1   -0.76435172E-06 -0.38875153E-14
    1    2   -0.20927715E-05 -0.48129903E-14
    2    2    0.17999052E-06 -0.20339931E-13

  -12    9    0
    1    1    0.26502612E-05  0.53195566E-14
    2    1    0.48763029E-05 -0.38380757E-14
    1    2   -0.10261488E-04  0.19057672E-13
    2    2    0.26502611E-05  0.59189307E-15

  -12   10    0
    1    1   -0.50481400E-05  0.80136500E-14
    2    1   -0.23873259E-05  0.12261459E-13
    1    2    0.36276934E-05  0.25978785E-13
    2    2   -0.50481400E-05 -0.52307876E-14

  -12   11    0
    1    1    0.26911523E-05 -0.67020364E-14
    2    1   -0.15504233E-06  0.24768599E-13
    1    2   -0.57918983E-05  0.62447877E-14
    2    2    0.26911522E-05  0.11381649E-13

  -11  -23    0
    1    1    0.26911506E-05  0.10266256E-13
    2    1    0.17803530E-05 -0.72771650E-15
    1    2   -0.12342502E-05  0.86311167E-14
    2    2    0.26911506E-05 -0.72752270E-14

  -11  -22    0
    1    1    0.19877919E-05  0.19419091E-13
    2    1    0.27591840E-05  0.20160523E-13
    1    2   -0.57918969E-05 -0.16135097E-13
    2    2    0.19877919E-05 -0.11678728E-13

  -11  -21    0
    1    1    0.78305157E-06  0.19979488E-13
    2    1   -0.57172599E-05  0.75564555E-14
    1    2    0.32659825E-05 -0.52891719E-14
    2    2    0.78305160E-06 -0.17988134E-13

  -11  -20    0
    1    1   -0.50805618E-06 -0.28157273E-14
    2    1    0.17495811E-05  0.37461353E-14
    1    2   -0.18651602E-05 -0.87126487E-14
    2    2   -0.50805607E-06  0.89514984E-14

  -11  -19    0
    1    1   -0.87997692E-06  0.57382484E-14
    2    1   -0.10795677E-04 -0.22859319E-13
    1    2    0.11681439E-04 -0.34547018E-14
    2    2   -0.87997688E-06 -0.86364835E-14

  -11  -18    0
    1    1   -0.42997589E-05 -0.84723352E-14
    2    1   -0.45532830E-05 -0.12731136E-13
    1    2    0.43818502E-05  0.51148322E-14
    2    2   -0.42997589E-05  0.17981493E-15

  -11  -17    0
    1    1    0.25861182E-05  0.12146588E-13
    2    1    0.36677124E-07  0.30028063E-13
    1    2    0.42576637E-05  0.61712788E-14
    2    2    0.25861182E-05 -0.17097218E-13

  -11  -16    0
    1    1   -0.30751252E-05  0.47827953E-14
    2    1   -0.17336165E-04  0.44885970E-14
    1    2    0.10220512E-04 -0.17889336E-13
    2    2   -0.30751252E-05 -0.29612814E-14

  -11  -15    0
    1    1    0.30414987E-05  0.63325538E-14
    2    1    0.26255175E-04  0.27377406E-13
    1    2   -0.98046368E-05  0.97751668E-14
    2    2    0.30414988E-05 -0.68199569E-14

  -11  -14    0
    1    1   -0.19017005E-05  0.10637270E-13
    2    1   -0.14165795E-04 -0.35006720E-14
    1    2    0.66953726E-05 -0.12984405E-13
    2    2   -0.19017005E-05 -0.69548859E-14

  -11  -13    0
    1    1   -0.70649356E-05  0.22392027E-14
    2    1   -0.77468558E-05 -0.17885866E-13
    1    2    0.10908692E-05  0.14794589E-13
    2    2   -0.70649356E-05 -0.16581788E-14

  -11  -12    0
    1    1    0.86457397E-05 -0.62327530E-14
    2    1    0.16696511E-04  0.73439518E-14
    1    2   -0.10695883E-05  0.35336317E-13
    2    2    0.86457398E-05  0.13105890E-13

  -11  -11    0
    1    1   -0.97677717E-06 -0.25718875E-13
    2    1   -0.71395392E-05 -0.89251523E-15
    1    2   -0.71395392E-05  0.80222287E-14
    2    2   -0.97677714E-06  0.31125872E-13

  -11  -10    0
    1    1   -0.28298517E-05 -0.23723319E-13
    2    1    0.18808481E-04 -0.75902826E-14
    1    2   -0.12226912E-04 -0.24042400E-13
    2    2   -0.28298517E-05  0.18675111E-13

  -11   -9    0
    1    1   -0.37827117E-05  0.10474884E-13
    2    1    0.10384001E-05 -0.15491081E-13
    1    2   -0.12512191E-04  0.10945238E-13
    2    2   -0.37827117E-05 -0.17192397E-13

  -11   -8    0
    1    1    0.60788130E-05 -0.42043754E-13
    2    1    0.15545712E-05 -0.10121461E-13
    1    2    0.58125155E-05  0.10588102E-13
    2    2    0.60788131E-05  0.37851090E-13

  -11   -7    0
    1    1    0.23170345E-05 -0.31212436E-13
    2    1   -0.17247552E-04  0.87939921E-14
    1    2    0.21340655E-04 -0.43020458E-14
    2    2    0.23170346E-05  0.21166725E-13

  -11   -6    0
    1    1    0.66316133E-05  0.36606257E-14
    2    1   -0.12301884E-04 -0.50202897E-14
    1    2    0.23817995E-04 -0.39990147E-13
    2    2    0.66316133E-05 -0.18226753E-13

  -11   -5    0
    1    1    0.66316107E-05  0.16267762E-13
    2    1   -0.17247575E-04  0.81159038E-14
    1    2    0.23891658E-04  0.14152741E-13
    2    2    0.66316108E-05 -0.30018170E-13

  -11   -4    0
    1    1    0.23170714E-05  0.27355505E-14
    2    1    0.15545585E-05  0.16774342E-13
    1    2    0.23818038E-04  0.10773066E-13
    2    2    0.23170714E-05 -0.50422990E-14

  -11   -3    0
    1    1    0.60788887E-05 -0.58209459E-14
    2    1    0.10383654E-05  0.51209037E-14
    1    2    0.21340547E-04 -0.26888214E-16
    2    2    0.60788888E-05  0.10826138E-13

  -11   -2    0
    1    1   -0.37828393E-05 -0.30676633E-13
    2    1    0.18808344E-04 -0.12539449E-13
    1    2    0.58120471E-05  0.13869114E-13
    2    2   -0.37828394E-05  0.23121750E-13

  -11   -1    0
    1    1   -0.28276063E-05 -0.73317546E-14
    2    1   -0.71520357E-05 -0.31918045E-13
    1    2   -0.12511488E-04 -0.28024458E-14
    2    2   -0.28276063E-05  0.89763266E-14

  -11    0    0
    1    1   -0.96533015E-06 -0.34142069E-14
    2    1    0.16556752E-04 -0.15829352E-13
    1    2   -0.12226130E-04  0.22990290E-13
    2    2   -0.96533015E-06  0.13325387E-14

  -11    1    0
    1    1    0.86571039E-05  0.88709964E-14
    2    1   -0.77592594E-05  0.21474142E-13
    1    2   -0.71518417E-05 -0.10963452E-14
    2    2    0.86571040E-05 -0.16969499E-13

  -11    2    0
    1    1   -0.70623953E-05  0.18649091E-13
    2    1   -0.14166427E-04  0.51958438E-13
    1    2   -0.10683207E-05 -0.12748483E-13
    2    2   -0.70623954E-05 -0.16585691E-13

  -11    3    0
    1    1   -0.19015356E-05  0.77718864E-14
    2    1    0.26255244E-04  0.31638754E-13
    1    2    0.10898887E-05 -0.36646901E-13
    2    2   -0.19015357E-05 -0.64028643E-14

  -11    4    0
    1    1    0.30414544E-05  0.46830378E-13
    2    1   -0.17336178E-04  0.19435842E-13
    1    2    0.66953489E-05 -0.18948385E-13
    2    2    0.30414544E-05 -0.45690231E-13

  -11    5    0
    1    1   -0.30751359E-05  0.20454233E-13
    2    1    0.36678159E-07  0.23798671E-13
    1    2   -0.98046196E-05 -0.17425297E-13
    2    2   -0.30751358E-05 -0.15209513E-13

  -11    6    0
    1    1    0.25861216E-05 -0.51243189E-14
    2    1   -0.45532748E-05  0.14748619E-13
    1    2    0.10220507E-04 -0.23585300E-13
    2    2    0.25861217E-05 -0.21296983E-14

  -11    7    0
    1    1   -0.42997536E-05  0.39804667E-13
    2    1   -0.10795672E-04 -0.15603838E-14
    1    2    0.42576689E-05 -0.95132235E-14
    2    2   -0.42997536E-05 -0.38254122E-13

  -11    8    0
    1    1   -0.87998072E-06  0.35869690E-13
    2    1    0.17495833E-05 -0.24589705E-15
    1    2    0.43818423E-05 -0.26068557E-14
    2    2   -0.87998076E-06 -0.44601692E-13

  -11    9    0
    1    1   -0.50805349E-06 -0.12789208E-13
    2    1   -0.57172644E-05 -0.22571788E-13
    1    2    0.11681433E-04 -0.11314734E-14
    2    2   -0.50805354E-06  0.14776429E-13

  -11   10    0
    1    1    0.78305249E-06  0.87154134E-14
    2    1    0.27591873E-05 -0.21496910E-13
    1    2   -0.18651626E-05  0.17483627E-13
    2    2    0.78305250E-06 -0.19149653E-14

  -11   11    0
    1    1    0.19877930E-05  0.36615676E-14
    2    1    0.17803479E-05 -0.14671729E-13
    1    2    0.32659828E-05  0.24629042E-13
    2    2    0.19877930E-05 -0.13647937E-14

  -11   12    0
    1    1    0.26911522E-05  0.89645495E-14
    2    1   -0.15504229E-06 -0.21785958E-14
    1    2   -0.57918983E-05  0.33328158E-13
    2    2    0.26911522E-05 -0.10903686E-15

  -10  -23    0
    1    1   -0.75515347E-06  0.16803833E-13
    2    1   -0.23873230E-05  0.12813969E-13
    1    2    0.39008857E-05  0.14384761E-13
    2    2   -0.75515354E-06 -0.13358672E-13

  -10  -22    0
    1    1   -0.50481393E-05  0.75629065E-14
    2    1    0.27591819E-05  0.84481033E-14
    1    2    0.39008637E-05  0.81332510E-14
    2    2   -0.50481393E-05 -0.13333545E-13

  -10  -21    0
    1    1    0.78305221E-06  0.86395192E-14
    2    1   -0.32396215E-05  0.83492241E-14
    1    2    0.36276989E-05 -0.18865118E-14
    2    2    0.78305217E-06 -0.13331350E-13

  -10  -20    0
    1    1   -0.14511554E-05 -0.75901199E-14
    2    1    0.83188663E-05 -0.47184479E-14
    1    2   -0.18651729E-05 -0.41390502E-14
    2    2   -0.14511553E-05  0.21357156E-14

  -10  -19    0
    1    1    0.19556970E-05  0.53032123E-14
    2    1   -0.92857395E-05  0.53602955E-15
    1    2   -0.35119144E-05  0.21606848E-13
    2    2    0.19556970E-05 -0.61645025E-14

  -10  -18    0
    1    1   -0.12155757E-05  0.32812295E-14
    2    1    0.16270427E-04 -0.14084220E-13
    1    2   -0.43556471E-05 -0.70204259E-14
    2    2   -0.12155757E-05 -0.14413384E-13

  -10  -17    0
    1    1    0.22949281E-05 -0.61453121E-14
    2    1   -0.65180264E-05  0.71670100E-14
    1    2   -0.15008672E-04 -0.85938201E-14
    2    2    0.22949281E-05  0.25310158E-14

  -10  -16    0
    1    1    0.14307400E-06  0.68448394E-14
    2    1    0.12129675E-04 -0.54695831E-14
    1    2    0.44782571E-05 -0.43116552E-14
    2    2    0.14307394E-06 -0.73999509E-14

  -10  -15    0
    1    1    0.11249160E-05 -0.87750445E-14
    2    1   -0.19763012E-05 -0.13066805E-13
    1    2   -0.10892028E-04  0.51894253E-14
    2    2    0.11249160E-05  0.38636629E-14

  -10  -14    0
    1    1    0.26345002E-05  0.10969144E-13
    2    1   -0.13862215E-04  0.34174052E-15
    1    2    0.15273006E-04  0.88236710E-14
    2    2    0.26345002E-05 -0.11885837E-13

  -10  -13    0
    1    1   -0.35534676E-05  0.27242531E-13
    2    1   -0.21512355E-05 -0.25167368E-13
    1    2    0.45258266E-05  0.17861580E-13
    2    2   -0.35534676E-05 -0.16046626E-13

  -10  -12    0
    1    1    0.14216065E-05  0.73831728E-14
    2    1    0.89720118E-05 -0.46100276E-14
    1    2   -0.16440962E-04  0.65945513E-14
    2    2    0.14216066E-05  0.17787963E-14

  -10  -11    0
    1    1   -0.28298517E-05 -0.28903420E-13
    2    1   -0.12226912E-04  0.20233815E-13
    1    2    0.18808481E-04 -0.61591357E-14
    2    2   -0.28298517E-05  0.27701094E-13

  -10  -10    0
    1    1    0.31607143E-05 -0.40598764E-14
    2    1    0.13440557E-05  0.10342421E-13
    1    2    0.13440557E-05 -0.22946055E-13
    2    2    0.31607144E-05 -0.61337383E-15

  -10   -9    0
    1    1    0.10399352E-04  0.27148104E-13
    2    1   -0.33724786E-05 -0.18523160E-13
    1    2    0.22820252E-04 -0.14218227E-14
    2    2    0.10399352E-04 -0.32006848E-13

  -10   -8    0
    1    1   -0.78714579E-07  0.31680485E-14
    2    1   -0.18892577E-05 -0.69512255E-14
    1    2    0.77165242E-05  0.24768450E-13
    2    2   -0.78714525E-07 -0.22561073E-14

  -10   -7    0
    1    1   -0.94979946E-05 -0.27105563E-13
    2    1    0.81605610E-06  0.12010358E-13
    1    2   -0.10909291E-04 -0.14396904E-13
    2    2   -0.94979946E-05  0.27518447E-13

  -10   -6    0
    1    1   -0.10411727E-04 -0.31676986E-13
    2    1    0.34469144E-04  0.22304207E-14
    1    2   -0.45135965E-04 -0.13216424E-13
    2    2   -0.10411727E-04  0.31028565E-13

  -10   -5    0
    1    1   -0.78872234E-06 -0.19715349E-13
    2    1    0.34469197E-04 -0.36214521E-13
    1    2   -0.41264297E-04  0.47943420E-14
    2    2   -0.78872230E-06  0.20587698E-13

  -10   -4    0
    1    1   -0.10411883E-04 -0.25410853E-13
    2    1    0.81607560E-06 -0.58624980E-14
    1    2   -0.41264230E-04  0.24084033E-13
    2    2   -0.10411883E-04  0.24229045E-13

  -10   -3    0
    1    1   -0.94982627E-05  0.66082122E-14
    2    1   -0.18897819E-05 -0.19696918E-13
    1    2   -0.45135543E-04  0.11628719E-13
    2    2   -0.94982627E-05 -0.87966201E-14

  -10   -2    0
    1    1   -0.77029384E-07  0.12134065E-13
    2    1   -0.33715978E-05 -0.57783639E-14
    1    2   -0.10908327E-04  0.85174923E-14
    2    2   -0.77029437E-07 -0.86520960E-14

  -10   -1    0
    1    1    0.10395188E-04  0.61128403E-14
    2    1    0.13445056E-05  0.10035375E-14
    1    2    0.77140074E-05 -0.25578498E-14
    2    2    0.10395188E-04 -0.63495758E-14

  -10    0    0
    1    1    0.31614048E-05  0.16148216E-13
    2    1   -0.12226537E-04 -0.18765371E-13
    1    2    0.22818074E-04 -0.51876906E-14
    2    2    0.31614048E-05 -0.10589891E-13

  -10    1    0
    1    1   -0.28276050E-05  0.50606763E-14
    2    1    0.89729249E-05 -0.29308153E-14
    1    2    0.13444585E-05  0.69822620E-15
    2    2   -0.28276051E-05 -0.11149230E-13

  -10    2    0
    1    1    0.14205502E-05 -0.40493325E-14
    2    1   -0.21518377E-05  0.19851308E-13
    1    2    0.18808306E-04 -0.16407882E-13
    2    2    0.14205502E-05 -0.30966440E-14

  -10    3    0
    1    1   -0.35533115E-05 -0.12935562E-13
    2    1   -0.13862448E-04  0.32121875E-13
    1    2   -0.16440634E-04 -0.69423634E-14
    2    2   -0.35533115E-05  0.18552813E-13

  -10    4    0
    1    1    0.26345928E-05 -0.35148208E-14
    2    1   -0.19763173E-05  0.67897077E-14
    1    2    0.45258238E-05 -0.24951395E-13
    2    2    0.26345928E-05  0.22567126E-14

  -10    5    0
    1    1    0.11249144E-05  0.11410252E-13
    2    1    0.12129680E-04  0.19663091E-13
    1    2    0.15272964E-04 -0.99243530E-14
    2    2    0.11249144E-05 -0.11775466E-13

  -10    6    0
    1    1    0.14308395E-06 -0.66284868E-14
    2    1   -0.65180234E-05  0.16624722E-13
    1    2   -0.10892028E-04  0.18515571E-13
    2    2    0.14308399E-06  0.11523389E-13

  -10    7    0
    1    1    0.22949232E-05  0.74380877E-14
    2    1    0.16270426E-04  0.33193934E-14
    1    2    0.44782585E-05 -0.16306401E-14
    2    2    0.22949232E-05 -0.12029630E-13

  -10    8    0
    1    1   -0.12155736E-05  0.25736615E-13
    2    1   -0.92857368E-05  0.64557734E-14
    1    2   -0.15008667E-04 -0.11340321E-13
    2    2   -0.12155735E-05 -0.26831131E-13

  -10    9    0
    1    1    0.19556984E-05 -0.14414509E-13
    2    1    0.83188685E-05 -0.37251018E-14
    1    2   -0.43556467E-05 -0.62495582E-14
    2    2    0.19556984E-05  0.60364786E-14

  -10   10    0
    1    1   -0.14511576E-05  0.24773478E-14
    2    1   -0.32396285E-05 -0.15945016E-13
    1    2   -0.35119156E-05 -0.11671782E-13
    2    2   -0.14511577E-05 -0.68933574E-15

  -10   11    0
    1    1    0.78305251E-06  0.21647343E-13
    2    1    0.27591873E-05 -0.31980711E-13
    1    2   -0.18651626E-05  0.13111257E-13
    2    2    0.78305247E-06 -0.27039142E-13

  -10   12    0
    1    1   -0.50481400E-05  0.11185998E-13
    2    1   -0.23873259E-05 -0.35596092E-13
    1    2    0.36276934E-05  0.77251573E-14
    2    2   -0.50481400E-05 -0.15091118E-13

   -9  -22    0
    1    1    0.14551315E-05 -0.78516837E-14
    2    1    0.48763039E-05  0.98879238E-15
    1    2   -0.11723604E-04 -0.58191299E-14
    2    2    0.14551315E-05 -0.20256691E-14

   -9  -21    0
    1    1    0.26502611E-05  0.16597184E-13
    2    1   -0.57172650E-05 -0.19055937E-14
    1    2    0.18153324E-05  0.94620492E-14
    2    2    0.26502611E-05 -0.20910574E-13

   -9  -20    0
    1    1   -0.50805347E-06 -0.98404358E-14
    2    1    0.83188656E-05 -0.16930901E-14
    1    2   -0.10261481E-04 -0.11527237E-13
    2    2   -0.50805341E-06  0.87860491E-14

   -9  -19    0
    1    1    0.19556976E-05 -0.22674571E-13
    2    1   -0.12436420E-04 -0.18429702E-13
    1    2    0.11681431E-04  0.85886159E-14
    2    2    0.19556976E-05  0.22487491E-13

   -9  -18    0
    1    1   -0.36281325E-05 -0.38891958E-14
    2    1    0.11124905E-04  0.51035565E-14
    1    2   -0.43556381E-05  0.16953453E-13
    2    2   -0.36281326E-05 -0.25679871E-14

   -9  -17    0
    1    1    0.40675965E-05  0.15892019E-13
    2    1   -0.10441639E-04 -0.63829150E-14
    1    2    0.12309402E-04 -0.45033421E-14
    2    2    0.40675964E-05 -0.14493777E-13

   -9  -16    0
    1    1   -0.40652350E-05 -0.15303243E-13
    2    1   -0.12861546E-06 -0.73812484E-15
    1    2    0.53938046E-05  0.16989882E-13
    2    2   -0.40652350E-05  0.14264794E-13

   -9  -15    0
    1    1    0.75809805E-05 -0.51039359E-14
    2    1    0.26320218E-05 -0.15819811E-13
    1    2   -0.43315849E-06  0.70351711E-14
    2    2    0.75809805E-05 -0.25183306E-14

   -9  -14    0
    1    1   -0.29983766E-05  0.12691183E-13
    2    1   -0.13555009E-04 -0.58364771E-14
    1    2    0.14031731E-04  0.43342066E-14
    2    2   -0.29983766E-05 -0.21948318E-13

   -9  -13    0
    1    1    0.26145412E-05  0.16872083E-14
    2    1    0.29718762E-04 -0.58373445E-14
    1    2   -0.22181803E-04  0.20929439E-14
    2    2    0.26145412E-05 -0.36553605E-14

   -9  -12    0
    1    1   -0.74153385E-07 -0.46093229E-14
    2    1   -0.78668562E-05  0.19045529E-13
    1    2   -0.31887337E-05 -0.54218782E-14
    2    2   -0.74153419E-07  0.12252623E-13

   -9  -11    0
    1    1   -0.37827118E-05  0.24980289E-14
    2    1   -0.12512191E-04  0.11862906E-13
    1    2    0.10384001E-05 -0.14739078E-13
    2    2   -0.37827116E-05  0.26783724E-14

   -9  -10    0
    1    1    0.10399352E-04 -0.11845925E-14
    2    1    0.22820252E-04  0.17002242E-13
    1    2   -0.33724786E-05  0.60520165E-15
    2    2    0.10399352E-04  0.11830536E-13

   -9   -9    0
    1    1    0.74572295E-06  0.12621749E-13
    2    1    0.51085600E-05 -0.22406744E-13
    1    2    0.51085601E-05  0.49379588E-14
    2    2    0.74572298E-06  0.51579382E-14

   -9   -8    0
    1    1   -0.16663941E-04  0.65969704E-14
    2    1   -0.72739208E-05 -0.69909356E-14
    1    2   -0.24890610E-04  0.35593490E-13
    2    2   -0.16663941E-04  0.14929870E-14

   -9   -7    0
    1    1   -0.69046684E-05  0.20595003E-13
    2    1    0.71201835E-05  0.11614407E-13
    1    2   -0.23552377E-04  0.15520137E-13
    2    2   -0.69046684E-05 -0.31464794E-13

   -9   -6    0
    1    1    0.21793938E-05 -0.83293019E-14
    2    1   -0.18681339E-04  0.10237471E-13
    1    2    0.16753539E-04 -0.26294071E-13
    2    2    0.21793940E-05  0.42246751E-14

   -9   -5    0
    1    1    0.85900505E-05 -0.30361320E-13
    2    1   -0.33250445E-04 -0.90283683E-14
    1    2    0.30029288E-04 -0.21161892E-13
    2    2    0.85900507E-05  0.26869945E-13

   -9   -4    0
    1    1    0.85900840E-05 -0.50060162E-13
    2    1   -0.18681373E-04 -0.23982552E-14
    1    2    0.59636640E-04 -0.22705796E-13
    2    2    0.85900841E-05  0.53200554E-13

   -9   -3    0
    1    1    0.21791137E-05 -0.29419826E-13
    2    1    0.71218655E-05 -0.77889084E-15
    1    2    0.30029221E-04 -0.25526456E-13
    2    2    0.21791139E-05  0.27688084E-13

   -9   -2    0
    1    1   -0.69089833E-05 -0.12970365E-13
    2    1   -0.72754949E-05  0.97751668E-15
    1    2    0.16754728E-04 -0.24862924E-13
    2    2   -0.69089833E-05  0.38570492E-14

   -9   -1    0
    1    1   -0.16683232E-04  0.52355581E-14
    2    1    0.51308573E-05  0.23698925E-13
    1    2   -0.23530596E-04  0.52128440E-15
    2    2   -0.16683232E-04 -0.13661489E-13

   -9    0    0
    1    1    0.72637179E-06  0.35050359E-13
    2    1    0.22818922E-04  0.70663961E-14
    1    2   -0.24656124E-04 -0.21842771E-13
    2    2    0.72637186E-06 -0.35359899E-13

   -9    1    0
    1    1    0.10395204E-04  0.34043243E-13
    2    1   -0.12511500E-04  0.30358528E-13
    1    2    0.51303563E-05 -0.27589910E-13
    2    2    0.10395204E-04 -0.28120518E-13

   -9    2    0
    1    1   -0.37828419E-05 -0.13765627E-13
    2    1   -0.78665932E-05  0.50471780E-14
    1    2   -0.33715489E-05 -0.13814470E-13
    2    2   -0.37828418E-05  0.19246215E-13

   -9    3    0
    1    1   -0.74170318E-07 -0.27257873E-13
    2    1    0.29718809E-04  0.27013114E-13
    1    2    0.10383695E-05 -0.51278426E-14
    2    2   -0.74170408E-07  0.24791096E-13

   -9    4    0
    1    1    0.26145383E-05 -0.18074734E-13
    2    1   -0.13555050E-04  0.25103183E-13
    1    2   -0.31887140E-05 -0.12954915E-13
    2    2    0.26145383E-05  0.20790498E-13

   -9    5    0
    1    1   -0.29983746E-05  0.12695248E-13
    2    1    0.26320233E-05 -0.82685594E-14
    1    2   -0.22181801E-04 -0.21386538E-13
    2    2   -0.29983746E-05 -0.13801433E-13

   -9    6    0
    1    1    0.75809812E-05 -0.75378885E-14
    2    1   -0.12863032E-06 -0.22601278E-13
    1    2    0.14031714E-04  0.58065532E-14
    2    2    0.75809812E-05  0.11813928E-13

   -9    7    0
    1    1   -0.40652365E-05 -0.14947800E-13
    2    1   -0.10441625E-04  0.12355134E-13
    1    2   -0.43315444E-06  0.35719257E-13
    2    2   -0.40652364E-05  0.74413132E-14

   -9    8    0
    1    1    0.40676018E-05 -0.67851269E-14
    2    1    0.11124901E-04  0.68185475E-14
    1    2    0.53937929E-05 -0.62929262E-14
    2    2    0.40676018E-05 -0.80081883E-16

   -9    9    0
    1    1   -0.36281356E-05 -0.12246226E-13
    2    1   -0.12436419E-04  0.90063791E-14
    1    2    0.12309409E-04 -0.26161927E-13
    2    2   -0.36281355E-05  0.10349143E-13

   -9   10    0
    1    1    0.19556984E-05 -0.30125235E-14
    2    1    0.83188686E-05  0.49571892E-14
    1    2   -0.43556468E-05 -0.10690233E-15
    2    2    0.19556983E-05  0.20718358E-14

   -9   11    0
    1    1   -0.50805351E-06  0.11995301E-13
    2    1   -0.57172644E-05  0.19155684E-14
    1    2    0.11681433E-04  0.19936743E-13
    2    2   -0.50805353E-06 -0.12002823E-13

   -9   12    0
    1    1    0.26502611E-05 -0.44318119E-14
    2    1    0.48763029E-05  0.66960326E-15
    1    2   -0.10261488E-04 -0.11868111E-13
    2    2    0.26502611E-05  0.17561094E-14

   -9   13    0
    1    1    0.14551318E-05 -0.26337710E-14
    2    1   -0.42464021E-05 -0.87560167E-14
    1    2    0.18153376E-05 -0.31355127E-14
    2    2    0.14551318E-05  0.48844121E-14

   -8  -22    0
    1    1   -0.24183928E-05  0.26502129E-13
    2    1   -0.24086356E-06 -0.26281061E-14
    1    2    0.48331971E-05  0.20795865E-13
    2    2   -0.24183928E-05 -0.32866559E-13

   -8  -21    0
    1    1   -0.23146353E-05  0.27377189E-13
    2    1   -0.76435027E-06  0.42812975E-14
    1    2    0.48332103E-05  0.88817842E-15
    2    2   -0.23146353E-05 -0.30718050E-13

   -8  -20    0
    1    1    0.17998797E-06 -0.38426293E-14
    2    1    0.17495799E-05  0.12197708E-13
    1    2    0.72514459E-05 -0.67394007E-15
    2    2    0.17998797E-06  0.56952598E-14

   -8  -19    0
    1    1   -0.87997989E-06 -0.17926361E-13
    2    1   -0.92857314E-05 -0.11925357E-13
    1    2   -0.20927740E-05 -0.24855118E-13
    2    2   -0.87997991E-06  0.18918732E-13

   -8  -18    0
    1    1   -0.12155742E-05 -0.13154300E-13
    2    1    0.11124897E-04 -0.51495266E-14
    1    2    0.43818445E-05  0.15787718E-13
    2    2   -0.12155743E-05  0.12950578E-13

   -8  -17    0
    1    1    0.40676040E-05  0.75058774E-14
    2    1   -0.99558320E-05 -0.54279498E-14
    1    2   -0.15008663E-04  0.84151436E-14
    2    2    0.40676040E-05 -0.69020310E-14

   -8  -16    0
    1    1   -0.25023542E-05  0.68793170E-14
    2    1    0.15368343E-04 -0.11174221E-13
    1    2    0.53937937E-05 -0.42396642E-14
    2    2   -0.25023542E-05 -0.61030824E-14

   -8  -15    0
    1    1    0.33324642E-05  0.57168354E-14
    2    1   -0.10221266E-04 -0.14741680E-13
    1    2   -0.19819832E-04  0.15343629E-13
    2    2    0.33324642E-05 -0.53071154E-14

   -8  -14    0
    1    1   -0.87000668E-05  0.67698939E-14
    2    1    0.89484244E-06 -0.74879339E-14
    1    2    0.13957133E-04  0.10049253E-13
    2    2   -0.87000669E-05 -0.12006509E-13

   -8  -13    0
    1    1    0.22177250E-05 -0.46868434E-14
    2    1    0.15887785E-04 -0.13496149E-14
    1    2   -0.20433539E-04 -0.11656474E-13
    2    2    0.22177249E-05 -0.20690372E-14

   -8  -12    0
    1    1    0.91532045E-06 -0.37585468E-13
    2    1   -0.15309953E-04  0.74593109E-14
    1    2    0.17926294E-04 -0.71644080E-15
    2    2    0.91532055E-06  0.31568891E-13

   -8  -11    0
    1    1    0.60788130E-05 -0.33899282E-13
    2    1    0.58125155E-05  0.63705551E-14
    1    2    0.15545712E-05  0.11257705E-13
    2    2    0.60788130E-05  0.39513552E-13

   -8  -10    0
    1    1   -0.78714603E-07  0.31100979E-14
    2    1    0.77165243E-05  0.15091906E-13
    1    2   -0.18892577E-05  0.75686670E-14
    2    2   -0.78714514E-07  0.26612374E-14

   -8   -9    0
    1    1   -0.16663941E-04 -0.21501376E-13
    2    1   -0.24890610E-04  0.59674488E-15
    1    2   -0.72739209E-05  0.14419889E-14
    2    2   -0.16663941E-04  0.29178361E-13

   -8   -8    0
    1    1    0.10759299E-04 -0.96372698E-14
    2    1    0.62038156E-05 -0.33808460E-13
    1    2    0.62038157E-05  0.58121910E-14
    2    2    0.10759299E-04  0.99311835E-14

   -8   -7    0
    1    1    0.43048412E-05  0.11666991E-13
    2    1   -0.78386140E-05 -0.54075668E-14
    1    2    0.21745766E-04  0.68959595E-14
    2    2    0.43048413E-05 -0.22438377E-13

   -8   -6    0
    1    1    0.20045293E-05 -0.37592813E-14
    2    1    0.55117527E-05  0.68894543E-14
    1    2    0.25642185E-04  0.12339955E-13
    2    2    0.20045293E-05 -0.35619294E-14

   -8   -5    0
    1    1   -0.19887579E-04 -0.91132614E-15
    2    1   -0.55555356E-05  0.25171705E-13
    1    2    0.16971798E-04  0.26333102E-14
    2    2   -0.19887579E-04  0.10535193E-14

   -8   -4    0
    1    1   -0.33393107E-04 -0.63176298E-13
    2    1   -0.55555982E-05  0.43107878E-13
    1    2   -0.72144889E-05 -0.48881038E-13
    2    2   -0.33393107E-04  0.55417964E-13

   -8   -3    0
    1    1   -0.19887474E-04 -0.44234635E-13
    2    1    0.55113106E-05  0.27839710E-13
    1    2   -0.72145237E-05 -0.53902195E-13
    2    2   -0.19887474E-04  0.33459834E-13

   -8   -2    0
    1    1    0.20060747E-05 -0.21941975E-13
    2    1   -0.78414294E-05  0.57618840E-14
    1    2    0.16971309E-04 -0.17346367E-13
    2    2    0.20060748E-05  0.18269403E-13

   -8   -1    0
    1    1    0.42856435E-05  0.31271752E-13
    2    1    0.64386642E-05 -0.21665829E-13
    1    2    0.25641244E-04  0.59353564E-14
    2    2    0.42856435E-05 -0.39664778E-13

   -8    0    0
    1    1    0.10922886E-04  0.81071760E-14
    2    1   -0.24655708E-04  0.16245685E-13
    1    2    0.21981430E-04  0.15085155E-13
    2    2    0.10922886E-04 -0.18400049E-13
[...]

   19    3    0
    1    1    0.62008904E-06 -0.13050338E-13 -0.83448419E-05  0.34444805E-13 -0.49160736E-01 -0.17236790E+00
    2    1    0.23630860E-04 -0.32097826E-13  0.11606362E-05 -0.42790173E-14 -0.10490669E-13  0.76890782E-13
    1    2    0.17759217E-06  0.54081118E-13  0.15252678E-04  0.87936080E-13 -0.30288673E-13 -0.12417416E-13
    2    2   -0.62008907E-06 -0.49229148E-14  0.83448419E-05  0.23208676E-13 -0.64890334E-01  0.35024392E+00

   19    4    0
    1    1   -0.55159129E-06 -0.41951441E-14  0.11712221E-04  0.90487513E-14 -0.35932201E+00  0.71910363E-01
    2    1    0.36833970E-05  0.62659533E-14  0.39423712E-05  0.18425350E-13  0.19682823E-12  0.12091291E-12
    1    2    0.12917002E-04 -0.25021873E-13  0.92015168E-06 -0.14266275E-13  0.43088870E-13 -0.10921570E-12
    2    2    0.55159131E-06  0.23460549E-13 -0.11712221E-04 -0.13617587E-12 -0.99080851E-01 -0.37521599E+00

   19    5    0
    1    1    0.21149471E-06  0.17853503E-13 -0.25144524E-05 -0.25909505E-13 -0.96252851E-01  0.91636874E-01
    2    1    0.97144288E-05 -0.12422380E-12  0.43020136E-05  0.47055124E-14  0.52276834E-13  0.74331120E-13
    1    2    0.51321419E-05  0.74842862E-13 -0.10495951E-04  0.15481242E-13  0.36672757E-14 -0.58021122E-14
    2    2   -0.21149466E-06  0.67394007E-14  0.25144523E-05 -0.42787226E-13 -0.38690038E+00 -0.50590117E-01

   19    6    0
    1    1   -0.10322221E-05 -0.40960887E-14  0.67523782E-05 -0.72566194E-14 -0.43350406E+00 -0.61154259E-01
    2    1   -0.25074242E-06 -0.25043215E-13  0.61080954E-05  0.43364139E-13 -0.39952111E-13 -0.22355605E-14
    1    2   -0.80252288E-05 -0.64451020E-13  0.43691646E-05 -0.80813880E-13 -0.72247415E-13 -0.87936377E-13
    2    2    0.10322221E-05  0.87307548E-14 -0.67523783E-05 -0.14833241E-14 -0.62439437E-01  0.96993391E-01

   19    7    0
    1    1   -0.15977996E-05  0.21160618E-13  0.47948596E-05 -0.38287787E-13  0.55123175E-01 -0.23277904E+00
    2    1   -0.58566943E-05  0.54420099E-13  0.62216790E-05 -0.84850924E-14 -0.11186464E-12 -0.52983386E-13
    1    2    0.47928695E-05  0.30365852E-14 -0.81544182E-05  0.20619225E-13 -0.66229325E-13  0.31842086E-13
    2    2    0.15977996E-05  0.41755417E-13 -0.47948596E-05 -0.31580722E-13  0.23410620E+00 -0.15470850E+00

   19    8    0
    1    1    0.21562847E-05  0.20626323E-13 -0.21317647E-05 -0.23699358E-13 -0.10221774E+00 -0.35501366E+00
    2    1   -0.10246667E-04 -0.29587016E-13 -0.72967359E-05 -0.87742286E-13  0.28615239E-13  0.95462276E-14
    1    2   -0.17791467E-04  0.23259032E-13  0.39064330E-05  0.33189672E-13 -0.52333850E-13  0.65064317E-13
    2    2   -0.21562847E-05 -0.22548966E-13  0.21317646E-05  0.60507697E-14  0.24081002E+00  0.32267634E+00

   19    9    0
    1    1   -0.74144962E-06 -0.68461946E-15  0.34157506E-05  0.15374366E-13 -0.27577274E-03  0.15688827E+00
    2    1   -0.90332679E-05  0.85139879E-13 -0.52384210E-05  0.57604420E-13  0.44472497E-13 -0.45170478E-14
    1    2    0.10403704E-04 -0.51036739E-13  0.75205861E-05 -0.42182183E-13 -0.91063174E-13  0.74695664E-15
    2    2    0.74144958E-06 -0.14637217E-13 -0.34157506E-05  0.28370833E-13  0.59112510E-01  0.18769984E-01

   19   10    0
    1    1    0.25874034E-05  0.15380844E-13 -0.23499889E-05 -0.37019541E-14  0.10642513E+00  0.57141736E-01
    2    1   -0.11736607E-04 -0.11953105E-12 -0.50450271E-05 -0.86193569E-13  0.35222983E-13  0.45389944E-13
    1    2   -0.60529722E-05  0.52756553E-13 -0.34946829E-05  0.25071729E-13 -0.40626439E-13 -0.75228305E-13
    2    2   -0.25874033E-05  0.12713409E-13  0.23499888E-05 -0.49031688E-13 -0.39549419E-01  0.38112381E-01

   19   11    0
    1    1   -0.76802560E-06  0.21599015E-13  0.29332781E-05 -0.19587847E-13 -0.26585194E+00  0.13257286E+00
    2    1    0.32780608E-05 -0.27106157E-13 -0.79286508E-05 -0.64008432E-13  0.79599659E-13 -0.36053692E-13
    1    2    0.11714874E-04 -0.22327964E-13  0.52495828E-05  0.38990885E-13 -0.13817858E-12 -0.61035865E-13
    2    2    0.76802565E-06  0.60877952E-15 -0.29332782E-05  0.52992550E-13  0.28652913E+00 -0.42040940E-01

   19   12    0
    1    1    0.33535726E-05  0.41479515E-13 -0.37811708E-05 -0.35759861E-13 -0.43266487E+00  0.15363928E+00
    2    1    0.59661002E-05  0.38838555E-13 -0.33819740E-05 -0.20215733E-13  0.29935768E-13 -0.18869649E-13
    1    2   -0.55126620E-05  0.19244824E-13 -0.17361076E-04 -0.37585046E-14  0.48003377E-13  0.23302031E-13
    2    2   -0.33535726E-05 -0.99634927E-13  0.37811708E-05  0.82186455E-13  0.51637346E-01  0.22774957E-01

   19   13    0
    1    1    0.53316196E-05 -0.23896331E-13 -0.42701214E-05  0.93355770E-14  0.68251804E-01  0.35037027E-01
    2    1    0.88557020E-05 -0.17669018E-12  0.59484977E-05 -0.90619968E-13  0.75992333E-13  0.52416971E-13
    1    2   -0.46655048E-05 -0.66494399E-13  0.82279543E-05 -0.12978129E-13  0.25864581E-13  0.22294297E-14
    2    2   -0.53316196E-05  0.51954629E-13  0.42701214E-05 -0.55598565E-13  0.94917441E-01 -0.47130834E-01

   19   14    0
    1    1   -0.20718459E-05  0.19041030E-14  0.14403827E-05 -0.12174533E-13 -0.93769313E-01  0.44126194E-02
    2    1    0.53614853E-05 -0.85859640E-13  0.12579468E-05  0.26193218E-13  0.14471837E-14  0.39527485E-13
    1    2   -0.22879521E-06  0.85607076E-13 -0.91346418E-05  0.52883953E-13  0.17052169E-13 -0.83541547E-14
    2    2    0.20718459E-05  0.14187815E-13 -0.14403827E-05 -0.31968243E-14  0.16916423E-01 -0.27784763E-01

   19   15    0
    1    1    0.98672919E-05 -0.15271733E-14 -0.63337822E-05 -0.14150736E-14 -0.20391761E+00 -0.19841364E+00
    2    1    0.13221832E-04 -0.17214682E-12  0.19059189E-04 -0.26669881E-13  0.35288934E-13 -0.48470592E-13
    1    2   -0.65236993E-05  0.95259973E-13  0.96925285E-05  0.11097711E-12 -0.44257035E-13 -0.54993383E-13
    2    2   -0.98672919E-05  0.73214357E-13  0.63337822E-05 -0.46210093E-13 -0.88214832E-01  0.31458671E+00

   19   16    0
    1    1   -0.69167700E-05 -0.33701479E-13  0.47094511E-05  0.15916440E-13 -0.27171774E+00 -0.21485238E+00
    2    1   -0.14890840E-04  0.13025287E-12 -0.96036273E-05 -0.20111448E-13  0.19219133E-13 -0.89496595E-13
    1    2    0.72553957E-05 -0.34017104E-13  0.10726403E-04 -0.15554172E-12 -0.83862855E-13 -0.16538386E-13
    2    2    0.69167700E-05 -0.63370499E-14 -0.47094511E-05  0.80017508E-14  0.29148110E+00  0.21307291E+00

   20    4    0
    1    1   -0.18247819E-10 -0.12519391E-13 -0.22200214E-05 -0.19723643E-13  0.27427649E+00 -0.10060459E+00
    2    1   -0.13846874E-04 -0.94212033E-13 -0.32978326E-05  0.46081684E-13  0.22704262E-13  0.10109256E-12
    1    2   -0.12965776E-04 -0.34382016E-13  0.75777638E-06  0.28564352E-14  0.34556775E-13 -0.78425205E-14
    2    2    0.18259643E-10  0.68698302E-14  0.22200213E-05 -0.51497950E-13 -0.92664653E-01  0.27449741E-01

   20    5    0
    1    1   -0.13178401E-06 -0.14557501E-13 -0.50610515E-05  0.25551501E-13 -0.39499755E-01  0.15731293E+00
    2    1   -0.22656452E-05  0.10755167E-13  0.38227985E-05  0.90137252E-13  0.69999424E-13  0.59391938E-13
    1    2    0.12341861E-06 -0.22428901E-13  0.69937416E-05 -0.57188197E-13 -0.52421115E-13  0.47008937E-13
    2    2    0.13178401E-06  0.15697648E-13  0.50610514E-05 -0.54550900E-13 -0.91983599E-01 -0.28180071E+00

   20    6    0
    1    1   -0.13434248E-06  0.19885948E-13  0.16163796E-05 -0.78788376E-13  0.33389274E+00 -0.12185656E+00
    2    1   -0.13896933E-04  0.98654753E-15 -0.53445957E-05 -0.26010671E-13 -0.33035583E-13  0.72942832E-13
    1    2    0.77089870E-05  0.11628718E-13  0.22353930E-05 -0.43315060E-13 -0.29029882E-13 -0.19085749E-13
    2    2    0.13434249E-06  0.42374172E-13 -0.16163796E-05 -0.43228089E-13 -0.32170401E+00  0.31032072E-01

   20    7    0
    1    1    0.16142743E-05 -0.15231956E-14 -0.52824936E-05  0.23277170E-13 -0.21696106E+00  0.12869943E-02
    2    1    0.14891700E-04 -0.53000511E-13 -0.13259738E-05 -0.66359076E-13 -0.60976703E-13 -0.60330789E-13
    1    2   -0.14310640E-05  0.10542386E-13  0.58870759E-05 -0.21330200E-13 -0.83495126E-13 -0.53070788E-13
    2    2   -0.16142743E-05  0.31859281E-15  0.52824935E-05 -0.34027197E-13  0.27708158E+00 -0.18840402E+00

   20    8    0
    1    1   -0.12404101E-05  0.13789154E-13  0.30103098E-05  0.20845250E-13 -0.49042537E-01  0.16593921E+00
    2    1    0.70870453E-05  0.34918537E-13  0.29026493E-05  0.80983066E-13  0.44778235E-13  0.73666381E-14
    1    2    0.74234024E-05  0.55420678E-13  0.17632851E-05  0.80237299E-13 -0.26833690E-13  0.68913599E-13
    2    2    0.12404102E-05  0.23081092E-13 -0.30103099E-05 -0.45894522E-13 -0.28547891E-01  0.20377986E+00

   20    9    0
    1    1    0.28148059E-06 -0.31020190E-13 -0.16486259E-05  0.64091690E-13  0.16302111E+00 -0.12174380E+00
    2    1    0.14000393E-04  0.88963828E-13  0.19800052E-05 -0.54160956E-13  0.39352695E-13  0.31847730E-13
    1    2   -0.45926432E-06  0.13580330E-13 -0.11756192E-04 -0.29892713E-13  0.55726704E-14  0.37346520E-13
    2    2   -0.28148062E-06 -0.26696581E-13  0.16486259E-05 -0.17822386E-13  0.10633630E+00 -0.25395540E+00

   20   10    0
    1    1   -0.17252527E-05 -0.29457068E-13 -0.99607643E-06  0.47988957E-14  0.12914681E+00  0.60569511E-01
    2    1    0.85833473E-05  0.23746967E-13  0.10484256E-04  0.31635070E-13  0.29590567E-13  0.12308190E-13
    1    2   -0.90478471E-05  0.15211142E-13  0.23139707E-05  0.76587983E-13 -0.27337538E-13 -0.28072964E-13
    2    2    0.17252527E-05 -0.26334756E-13  0.99607645E-06 -0.16545521E-13 -0.17525646E+00  0.23595397E+00

   20   11    0
    1    1   -0.12870119E-05 -0.17077296E-13  0.10680802E-05 -0.14683350E-14  0.37557393E+00  0.23589078E+00
    2    1    0.59806154E-05  0.24643301E-13  0.46371292E-05  0.28307654E-13 -0.48665738E-13  0.10182720E-13
    1    2   -0.25199676E-05 -0.12866953E-12 -0.89926472E-05 -0.10189750E-12 -0.38872147E-13 -0.58479345E-13
    2    2    0.12870119E-05 -0.19799659E-13 -0.10680801E-05  0.24412465E-13  0.23621182E+00 -0.81361067E-01

   20   12    0
    1    1    0.19868049E-05  0.17031122E-13 -0.25793765E-05 -0.19174441E-13 -0.78607194E-01  0.79771946E-01
    2    1    0.62561841E-05 -0.19716991E-13  0.12645207E-04 -0.10240639E-12  0.46594901E-14 -0.11299799E-13
    1    2   -0.10410791E-04 -0.19784446E-12  0.54803504E-05 -0.46599732E-13  0.11200943E-13  0.33498628E-13
    2    2   -0.19868049E-05 -0.40466206E-13  0.25793765E-05  0.39919280E-13  0.10631702E+00  0.90743650E-01

   20   13    0
    1    1   -0.37676366E-05 -0.84649139E-13  0.40392549E-05  0.60566434E-13  0.41294061E-01  0.67866668E-01
    2    1   -0.12367641E-04 -0.14453937E-12 -0.84959610E-05  0.84163650E-14  0.27326581E-13  0.22247278E-13
    1    2    0.52387469E-05 -0.16449211E-13  0.55472173E-05 -0.11051881E-12  0.94032325E-14  0.77897182E-14
    2    2    0.37676366E-05  0.13708110E-13 -0.40392550E-05 -0.20431248E-13  0.11963614E+00 -0.31349733E-01

   20   14    0
    1    1    0.13326517E-05 -0.19483764E-13 -0.92453456E-06  0.19829217E-13  0.60117872E-01 -0.36408929E-01
    2    1    0.29783782E-05  0.36961214E-13 -0.41425643E-05  0.46541309E-14 -0.61491849E-13  0.28906989E-13
    1    2    0.43828281E-05  0.11548581E-12 -0.41828808E-05  0.44617485E-13 -0.12360139E-13  0.26941131E-13
    2    2   -0.13326517E-05  0.43144680E-13  0.92453455E-06 -0.49545803E-13  0.16740583E+00  0.18804031E+00

   20   15    0
    1    1   -0.44488888E-05 -0.55193416E-13  0.24163854E-05  0.10123846E-13  0.15828954E+00 -0.23510146E+00
    2    1   -0.10371689E-04  0.60013552E-13 -0.97362053E-05 -0.15490905E-13  0.42680139E-13  0.53077431E-13
    1    2    0.57903839E-05  0.18311261E-13  0.55584866E-05  0.51951555E-13 -0.50021093E-13  0.98245861E-14
    2    2    0.44488889E-05  0.79613918E-13 -0.24163855E-05 -0.68667904E-13  0.24369873E+00  0.24760634E+00

   21    6    0
    1    1    0.83827029E-11 -0.36189855E-14  0.32581554E-05  0.62464573E-13 -0.58627026E-01 -0.11642333E+00
    2    1    0.69921428E-05  0.25277949E-13 -0.51501665E-05 -0.71413356E-13  0.47515839E-13 -0.13594834E-14
    1    2   -0.75954080E-05  0.65072116E-13  0.20844814E-05 -0.41919895E-13 -0.16866952E-13  0.39735588E-13
    2    2   -0.84033166E-11 -0.40738897E-15 -0.32581554E-05  0.31890668E-13 -0.32599317E+00  0.21963047E+00

   21    7    0
    1    1   -0.25533126E-06 -0.22101353E-13 -0.38365056E-05  0.39586986E-13 -0.74324889E-01  0.27006302E+00
    2    1    0.31033369E-05  0.77614977E-14  0.98503294E-05 -0.75108842E-13  0.45927397E-15 -0.99933470E-14
    1    2   -0.20847606E-06  0.19754406E-12 -0.84079312E-05  0.58524494E-13 -0.34569566E-14 -0.10781841E-12
    2    2    0.25533126E-06  0.22249184E-13  0.38365056E-05  0.33006665E-13 -0.11140039E+00 -0.12110076E+00

   21    8    0
    1    1    0.54174315E-07 -0.19098926E-13  0.14088498E-05  0.77639447E-13  0.72775266E-01  0.80480398E-01
    2    1   -0.13322783E-04  0.76652851E-13 -0.54508138E-05 -0.19670112E-13 -0.71171847E-13 -0.43400975E-13
    1    2   -0.13555014E-04  0.68519780E-13  0.28063490E-05  0.86664271E-13 -0.23764744E-13 -0.47448807E-13
    2    2   -0.54174333E-07 -0.44329612E-13 -0.14088499E-05  0.21951137E-13 -0.94936527E-01 -0.38611905E-02

   21    9    0
    1    1    0.25312299E-06 -0.37739804E-13 -0.14206153E-06 -0.85795086E-14  0.26249361E-01  0.33398613E+00
    2    1    0.80319609E-06 -0.11705589E-12  0.14798876E-04  0.72205184E-13 -0.71422594E-13  0.11210169E-12
    1    2    0.94229594E-05  0.48324251E-13  0.73504012E-05  0.60996753E-13  0.13097633E-13 -0.57235223E-13
    2    2   -0.25312304E-06  0.45249611E-13  0.14206163E-06  0.22242408E-13  0.34755351E+00 -0.20240780E+00

   21   10    0
    1    1    0.54134099E-06 -0.28501317E-13  0.23410698E-05 -0.70968622E-14  0.11466451E-01 -0.19238823E+00
    2    1   -0.24276025E-04 -0.88748282E-13 -0.13006198E-04 -0.48493964E-13  0.60136627E-13 -0.33539333E-13
    1    2   -0.63218175E-05 -0.29731814E-13  0.16874226E-05  0.89418745E-13 -0.13636250E-13 -0.62815093E-13
    2    2   -0.54134105E-06 -0.53099845E-13 -0.23410697E-05 -0.46466195E-15 -0.17105088E-02  0.18427742E+00

   21   11    0
    1    1    0.22981010E-05 -0.19421707E-13 -0.70171742E-06  0.36728433E-13 -0.58988286E+00 -0.11488389E+00
    2    1    0.14846558E-04 -0.94641668E-14 -0.71215606E-05  0.66332637E-14  0.17558929E-13 -0.52414875E-13
    1    2    0.22792476E-04 -0.97361570E-13  0.13159240E-04  0.67926537E-16 -0.21129357E-13 -0.51316613E-13
    2    2   -0.22981010E-05 -0.27634565E-13  0.70171738E-06 -0.37086558E-13  0.99832546E-01  0.19800129E+00

   21   12    0
    1    1    0.35310145E-08  0.25928343E-13  0.29023791E-06  0.15298824E-13  0.23629906E+00  0.19998897E+00
    2    1   -0.11808691E-04  0.18797283E-13 -0.81470060E-05  0.11942482E-12 -0.76079734E-13 -0.13689269E-13
    1    2   -0.16995596E-05 -0.11180666E-13 -0.63185598E-05 -0.95379898E-13 -0.21339935E-13  0.18279810E-14
    2    2   -0.35310166E-08 -0.18662209E-13 -0.29023791E-06  0.14416907E-13 -0.42918233E-01  0.10767358E+00

   21   13    0
    1    1    0.12471886E-05 -0.53512994E-13 -0.65751073E-06  0.39078712E-14  0.33467649E+00 -0.33282161E-01
    2    1    0.11130555E-04  0.19261945E-13 -0.25433344E-05 -0.23975503E-13 -0.12470383E-13  0.36639161E-13
    1    2    0.11077117E-04 -0.30126976E-14  0.44853260E-05 -0.84671240E-13 -0.51013966E-13  0.33582021E-13
    2    2   -0.12471885E-05  0.10257847E-13  0.65751067E-06 -0.21468653E-13 -0.66823168E-01  0.12848687E+00

   21   14    0
    1    1   -0.34501735E-05 -0.36721308E-13  0.16971284E-05 -0.58845615E-14  0.40145509E+00 -0.84093069E-01
    2    1   -0.17141957E-05 -0.53093112E-13  0.86461512E-05  0.88973738E-14 -0.16650294E-13  0.76558319E-13
    1    2   -0.43471335E-05  0.41584087E-13 -0.13142167E-04  0.92145030E-15 -0.10298649E-12  0.27695165E-13
    2    2    0.34501736E-05 -0.55519008E-13 -0.16971284E-05  0.36186982E-13 -0.14984577E+00 -0.10129080E+00

   22    8    0
    1    1    0.17438140E-11  0.30160282E-13  0.51041154E-05 -0.50565021E-14 -0.14013614E+00 -0.40574289E-01
    2    1    0.28557798E-05  0.82532970E-14 -0.68848696E-05 -0.10021519E-12 -0.48113897E-13 -0.31600843E-13
    1    2    0.13911282E-04  0.27818965E-13  0.32658400E-05  0.50889417E-13  0.80282565E-13 -0.79365600E-13
    2    2   -0.17341083E-11  0.23554509E-13 -0.51041154E-05  0.21914220E-13  0.18326132E-01 -0.13014201E+00

   22    9    0
    1    1   -0.43901594E-08 -0.30756593E-13 -0.39820026E-05  0.43821446E-13 -0.45253513E-01  0.39330627E+00
    2    1    0.57578286E-05 -0.74656793E-13  0.79399804E-06  0.12412089E-12 -0.72279126E-13  0.54861083E-13
    1    2   -0.43613852E-06  0.99650730E-13 -0.14069475E-04  0.51885834E-13 -0.10608893E-14 -0.47967011E-13
    2    2    0.43901555E-08 -0.17139610E-13  0.39820026E-05 -0.81876861E-13 -0.20880676E+00 -0.25293287E-01

   22   10    0
    1    1   -0.21634689E-06 -0.58170022E-14  0.10847337E-05  0.93947202E-14  0.66794520E-01  0.16304079E+00
    2    1    0.12512692E-04  0.97950100E-13 -0.23708863E-05  0.18362656E-13  0.25603095E-13  0.65752473E-13
    1    2   -0.41229895E-05  0.56867412E-13  0.33401159E-05  0.14586340E-13 -0.22684591E-13 -0.13095176E-13
    2    2    0.21634695E-06  0.22216509E-13 -0.10847338E-05 -0.52034250E-14  0.20932733E+00 -0.48155174E-02

   22   11    0
    1    1   -0.32881898E-05 -0.32701706E-13 -0.18984329E-05 -0.25426411E-13 -0.14792488E+00 -0.11460876E+00
    2    1    0.36553056E-05  0.14682063E-13  0.11691155E-04  0.56092023E-13  0.60007129E-13 -0.52925240E-13
    1    2    0.22594794E-05  0.12209529E-12 -0.21105116E-04 -0.10611454E-12  0.82929273E-14  0.20876999E-13
    2    2    0.32881897E-05 -0.10860941E-13  0.18984330E-05 -0.70106030E-13 -0.46415468E-01  0.23081626E+00

   22   12    0
    1    1    0.83123041E-06  0.36253525E-13 -0.72973101E-06  0.17318802E-13  0.30412716E-01  0.62091375E-01
    2    1    0.35460725E-05 -0.81366765E-13  0.43697573E-05  0.33421252E-13  0.46528649E-13 -0.11330151E-12
    1    2   -0.17147833E-04 -0.91115221E-13  0.12509313E-04 -0.10497761E-13 -0.48157338E-13 -0.53743002E-13
    2    2   -0.83123041E-06  0.18055591E-13  0.72973104E-06 -0.32351495E-13 -0.98282528E-01 -0.27038875E+00

   22   13    0
    1    1   -0.34507140E-05 -0.10713913E-13  0.19872032E-05 -0.76804882E-15  0.66180907E-01  0.67529669E-01
    2    1   -0.54048961E-05 -0.23840990E-13  0.60875077E-05 -0.22701383E-13 -0.56480505E-13 -0.92446006E-14
    1    2    0.83113817E-06 -0.76730055E-14 -0.52406665E-05 -0.62358608E-13  0.46737887E-13  0.42838015E-13
    2    2    0.34507140E-05 -0.73991885E-14 -0.19872032E-05  0.37346672E-13 -0.15001895E+00  0.10951515E-01

   23   10    0
    1    1    0.28503849E-12  0.40991272E-13  0.53379570E-05 -0.30994440E-13  0.24872961E-01 -0.50556927E-01
    2    1   -0.21657027E-04  0.16425949E-13 -0.98259780E-05  0.49860578E-13 -0.84521247E-13  0.14849042E-13
    1    2    0.45859151E-05  0.58693669E-13  0.35528991E-05  0.10586124E-13 -0.51785059E-13 -0.90792166E-14
    2    2   -0.27685409E-12  0.23851418E-13 -0.53379569E-05 -0.25262561E-13  0.10337267E+00  0.19535531E+00

   23   11    0
    1    1    0.24688279E-05 -0.51702911E-13 -0.23720700E-05  0.31387382E-14 -0.99705912E-01 -0.47588205E-01
    2    1   -0.17841498E-05  0.19858887E-14 -0.15138971E-05 -0.27160698E-13  0.66079397E-13 -0.36440808E-13
    1    2   -0.17962410E-06  0.81488634E-13  0.69713931E-05  0.25173898E-13 -0.57508752E-13  0.10785440E-15
    2    2   -0.24688278E-05  0.23146361E-14  0.23720700E-05  0.33238616E-13 -0.43012475E-01 -0.57698286E-01

   23   12    0
    1    1   -0.81985285E-06 -0.27459487E-14  0.33241026E-05 -0.36049722E-16 -0.11897760E-01  0.65511644E-01
    2    1   -0.20237730E-04 -0.17022180E-13 -0.12435154E-04 -0.40735286E-13 -0.38295031E-13 -0.88857322E-13
    1    2    0.14033335E-04  0.43323473E-13  0.81021599E-05 -0.10279286E-12  0.31226925E-13  0.49728697E-13
    2    2    0.81985284E-06 -0.19286191E-13 -0.33241026E-05 -0.60872802E-13  0.60722826E-01  0.23207161E+00
