 
             +---------------------------------------------------+
             |                                                   |
             |                   WANNIER90                       |
             |                                                   |
             +---------------------------------------------------+
             |                                                   |
             |        Welcome to the Maximally-Localized         |
             |        Generalized Wannier Functions code         |
             |            http://www.wannier.org                 |
             |                                                   |
             |                                                   |
             |  Wannier90 Developer Group:                       |
             |    Giovanni Pizzi    (EPFL)                       |
             |    Valerio Vitale    (Cambridge)                  |
             |    David Vanderbilt  (Rutgers University)         |
             |    Nicola Marzari    (EPFL)                       |
             |    Ivo Souza         (Universidad del Pais Vasco) |
             |    Arash A. Mostofi  (Imperial College London)    |
             |    Jonathan R. Yates (University of Oxford)       |
             |                                                   |
             |  For the full list of Wannier90 3.x authors,      |
             |  please check the code documentation and the      |
             |  README on the GitHub page of the code            |
             |                                                   |
             |                                                   |
             |  Please cite                                      |
             |                                                   |
             |  [ref] "Wannier90 as a community code:            |
             |        new features and applications",            |
             |        G. Pizzi et al., J. Phys. Cond. Matt. 32,  |
             |        165902 (2020).                             |
             |        http://doi.org/10.1088/1361-648X/ab51ff    |
             |                                                   |
             |  in any publications arising from the use of      |
             |  this code. For the method please cite            |
             |                                                   |
             |  [ref] "Maximally Localized Generalised Wannier   |
             |         Functions for Composite Energy Bands"     |
             |         N. Marzari and D. Vanderbilt              |
             |         Phys. Rev. B 56 12847 (1997)              |
             |                                                   |
             |  [ref] "Maximally Localized Wannier Functions     |
             |         for Entangled Energy Bands"               |
             |         I. Souza, N. Marzari and D. Vanderbilt    |
             |         Phys. Rev. B 65 035109 (2001)             |
             |                                                   |
             |                                                   |
             | Copyright (c) 1996-2020                           |
             |        The Wannier90 Developer Group and          |
             |        individual contributors                    |
             |                                                   |
             |      Release: 3.1.0        5th March    2020      |
             |                                                   |
             | This program is free software; you can            |
             | redistribute it and/or modify it under the terms  |
             | of the GNU General Public License as published by |
             | the Free Software Foundation; either version 2 of |
             | the License, or (at your option) any later version|
             |                                                   |
             | This program is distributed in the hope that it   |
             | will be useful, but WITHOUT ANY WARRANTY; without |
             | even the implied warranty of MERCHANTABILITY or   |
             | FITNESS FOR A PARTICULAR PURPOSE. See the GNU     |
             | General Public License for more details.          |
             |                                                   |
             | You should have received a copy of the GNU General|
             | Public License along with this program; if not,   |
             | write to the Free Software Foundation, Inc.,      |
             | 675 Mass Ave, Cambridge, MA 02139, USA.           |
             |                                                   |
             +---------------------------------------------------+
             |    Execution started on 25Jun2022 at 16:44:42     |
             +---------------------------------------------------+
 
 ******************************************************************************
 * -> Using CODATA 2006 constant values                                       *
 *    (http://physics.nist.gov/cuu/Constants/index.html)                      *
 * -> Using Bohr value from CODATA                                            *
 ******************************************************************************
 

 Running in serial (with serial executable)
 
                                    ------
                                    SYSTEM
                                    ------
 
                              Lattice Vectors (Ang)
                    a_1     2.467197   0.000000   0.000000
                    a_2    -1.233599   2.136655   0.000000
                    a_3     0.000000   0.000000  20.000000
 
                   Unit Cell Volume:     105.43100  (Ang^3)
 
                        Reciprocal-Space Vectors (Ang^-1)
                    b_1     2.546690   1.470332   0.000000
                    b_2     0.000000   2.940664   0.000000
                    b_3     0.000000   0.000000   0.314159
  
 *----------------------------------------------------------------------------*
 |   Site       Fractional Coordinate          Cartesian Coordinate (Ang)     |
 +----------------------------------------------------------------------------+
 | C    1   0.33333   0.66667   0.50000   |    0.00000   1.42444  10.00000    |
 | C    2   0.66667   0.33333   0.50000   |    1.23360   0.71222  10.00000    |
 *----------------------------------------------------------------------------*
                                ------------
                                K-POINT GRID
                                ------------
  
             Grid size = 36 x 36 x  1      Total points = 1296
  
  
 *---------------------------------- MAIN ------------------------------------*
 |  Number of Wannier Functions               :                 2             |
 |  Number of Objective Wannier Functions     :                 2             |
 |  Number of input Bloch states              :                36             |
 |  Output verbosity (1=low, 5=high)          :                 1             |
 |  Timing Level (1=low, 5=high)              :                 1             |
 |  Optimisation (0=memory, 3=speed)          :                 3             |
 |  Length Unit                               :               Ang             |
 |  Post-processing setup (write *.nnkp)      :                 F             |
 |  Using Gamma-only branch of algorithms     :                 F             |
 |  Wavefunction (UNK) file-type              :       unformatted             |
 |  Wavefunction spin channel                 :                up             |
 *----------------------------------------------------------------------------*
 *------------------------------- WANNIERISE ---------------------------------*
 |  Total number of iterations                :             20000             |
 |  Number of CG steps before reset           :                 5             |
 |  Trial step length for line search         :             2.000             |
 |  Convergence tolerence                     :         0.100E-09             |
 |  Convergence window                        :                10             |
 |  Iterations between writing output         :                 1             |
 |  Iterations between backing up to disk     :               100             |
 |  Write r^2_nm to file                      :                 F             |
 |  Write xyz WF centres to file              :                 F             |
 |  Write on-site energies <0n|H|0n> to file  :                 F             |
 |  Use guiding centre to control phases      :                 T             |
 |  Use phases for initial projections        :                 F             |
 |  Iterations before starting guiding centres:                 0             |
 |  Iterations between using guiding centres  :                 1             |
 *----------------------------------------------------------------------------*
 *------------------------------- DISENTANGLE --------------------------------*
 |  Using band disentanglement                :                 T             |
 |  Total number of iterations                :             20000             |
 |  Mixing ratio                              :             0.500             |
 |  Convergence tolerence                     :         1.000E-10             |
 |  Convergence window                        :                 3             |
 *----------------------------------------------------------------------------*
 *-------------------------------- PLOTTING ----------------------------------*
 |  Plotting Wannier functions                :                 T             |
 |   Size of supercell for plotting           :     5x    5x    1             |
 |   Plotting mode (molecule or crystal)      :           crystal             |
 |   Plotting format                          :              cube             |
 |   Plot radius                              :             3.500             |
 |   Plot scale                               :             1.000             |
 *----------------------------------------------------------------------------*
 |  Plotting interpolated bandstructure       :                 T             |
 |   Number of K-path sections                :                 3             |
 |   Divisions along first K-path section     :               100             |
 |   Output format                            :           gnuplot             |
 |   Output mode                              :               s-k             |
 *----------------------------------------------------------------------------*
 |   K-space path sections:                                                   |
 |    From: G       0.000  0.000  0.000     To: M       0.000  0.500  0.000   |
 |    From: M       0.000  0.500  0.000     To: K       0.333  0.333  0.000   |
 |    From: K       0.333  0.333  0.000     To: G       0.000  0.000  0.000   |
 *----------------------------------------------------------------------------*
 |  Plotting Hamiltonian in WF basis          :                 T             |
 *----------------------------------------------------------------------------*
 Time to read parameters        0.113 (sec)

 *---------------------------------- K-MESH ----------------------------------*
 +----------------------------------------------------------------------------+
 |                    Distance to Nearest-Neighbour Shells                    |
 |                    ------------------------------------                    |
 |          Shell             Distance (Ang^-1)          Multiplicity         |
 |          -----             -----------------          ------------         |
 |             1                   0.081685                      6            |
 |             2                   0.141483                      6            |
 |             3                   0.163370                      6            |
 |             4                   0.216119                     12            |
 |             5                   0.245055                      6            |
 |             6                   0.282966                      6            |
 |             7                   0.294520                     12            |
 |             8                   0.314159                      2            |
 |             9                   0.324605                     12            |
 |            10                   0.326740                      6            |
 |            11                   0.344548                     12            |
 |            12                   0.354099                     12            |
 |            13                   0.356057                     12            |
 |            14                   0.374328                     12            |
 |            15                   0.381318                     24            |
 |            16                   0.398432                     12            |
 |            17                   0.408426                      6            |
 |            18                   0.422807                     12            |
 |            19                   0.424448                      6            |
 |            20                   0.430625                     24            |
 |            21                   0.432237                     12            |
 |            22                   0.453272                     12            |
 |            23                   0.454803                     12            |
 |            24                   0.474840                     24            |
 |            25                   0.488690                     24            |
 |            26                   0.490111                      6            |
 |            27                   0.496871                     12            |
 |            28                   0.510123                     12            |
 |            29                   0.515274                     12            |
 |            30                   0.528065                     12            |
 |            31                   0.534345                     24            |
 |            32                   0.535645                     12            |
 |            33                   0.552759                     24            |
 |            34                   0.565931                      6            |
 |            35                   0.571796                     18            |
 |            36                   0.582155                     12            |
 +----------------------------------------------------------------------------+
 | The b-vectors are chosen automatically                                     |
 | SVD found small singular value, Rejecting this shell and trying the next   |
 | SVD found small singular value, Rejecting this shell and trying the next   |
 | SVD found small singular value, Rejecting this shell and trying the next   |
 | SVD found small singular value, Rejecting this shell and trying the next   |
 | The following shells are used:   1,  8                                     |
 +----------------------------------------------------------------------------+
 |                        Shell   # Nearest-Neighbours                        |
 |                        -----   --------------------                        |
 |                          1               6                                 |
 |                          8               2                                 |
 +----------------------------------------------------------------------------+
 | Completeness relation is fully satisfied [Eq. (B1), PRB 56, 12847 (1997)]  |
 +----------------------------------------------------------------------------+
 |                  b_k Vectors (Ang^-1) and Weights (Ang^2)                  |
 |                  ----------------------------------------                  |
 |            No.         b_k(x)      b_k(y)      b_k(z)        w_b           |
 |            ---        --------------------------------     --------        |
 |             1         0.000000    0.081685    0.000000    49.956601        |
 |             2         0.070741    0.040843    0.000000    49.956601        |
 |             3        -0.070741   -0.040843    0.000000    49.956601        |
 |             4        -0.070741    0.040843    0.000000    49.956601        |
 |             5         0.000000   -0.081685    0.000000    49.956601        |
 |             6         0.070741   -0.040843    0.000000    49.956601        |
 |             7         0.000000    0.000000    0.314159     5.066059        |
 |             8         0.000000    0.000000   -0.314159     5.066059        |
 +----------------------------------------------------------------------------+
 |                           b_k Directions (Ang^-1)                          |
 |                           -----------------------                          |
 |            No.           x           y           z                         |
 |            ---        --------------------------------                     |
 |             1         0.000000    0.081685    0.000000                     |
 |             2         0.070741    0.040843    0.000000                     |
 |             3        -0.070741    0.040843    0.000000                     |
 |             4         0.000000    0.000000    0.314159                     |
 +----------------------------------------------------------------------------+
  
 Time to get kmesh              0.668 (sec)
 *============================================================================*
 |                              MEMORY ESTIMATE                               |
 |         Maximum RAM allocated during each phase of the calculation         |
 *============================================================================*
 |                        Disentanglement          260.91 Mb                  |
 |                            Wannierise:            4.68 Mb                  |
 |                          plot_wannier:            4.68 Mb                  |
 *----------------------------------------------------------------------------*
  
 Starting a new Wannier90 calculation ...


 Reading overlaps from graphene.mmn    :  Created on 25Jun2022 at 13:57:42

 Reading projections from graphene.amn :  Created on 25Jun2022 at 13:52:59

 Time to read overlaps         10.074 (sec)

 *------------------------------- DISENTANGLE --------------------------------*
 +----------------------------------------------------------------------------+
 |                              Energy  Windows                               |
 |                              ---------------                               |
 |                   Outer:  -10.00000  to    9.50000  (eV)                   |
 |                   Inner:   -5.30000  to   -0.85000  (eV)                   |
 +----------------------------------------------------------------------------+
   Number of target bands to extract:    2

                   Unitarised projection of Wannier functions                  
                   ------------------------------------------                  
   A_mn = <psi_m|g_n> --> S = A.A^+ --> U = S^-1/2.A
   In dis_project... done
   Using an inner window (linner = T)
   In dis_proj_froz... done

                   Extraction of optimally-connected subspace                  
                   ------------------------------------------                  
 +---------------------------------------------------------------------+<-- DIS
 |  Iter     Omega_I(i-1)      Omega_I(i)      Delta (frac.)    Time   |<-- DIS
 +---------------------------------------------------------------------+<-- DIS
       1       2.24163509       2.10397457       6.543E-02      0.00    <-- DIS
       2       2.15286556       2.07468736       3.768E-02      0.05    <-- DIS
       3       2.10918496       2.05507718       2.633E-02      0.10    <-- DIS
       4       2.07885854       2.04088955       1.860E-02      0.15    <-- DIS
       5       2.05745330       2.03014379       1.345E-02      0.20    <-- DIS
       6       2.04195083       2.02172045       1.001E-02      0.25    <-- DIS
       7       2.03038599       2.01493116       7.670E-03      0.30    <-- DIS
       8       2.02149354       2.00933070       6.053E-03      0.35    <-- DIS
       9       2.01445602       2.00461978       4.907E-03      0.40    <-- DIS
      10       2.00873884       2.00059062       4.073E-03      0.45    <-- DIS
      11       2.00398622       1.99709487       3.451E-03      0.50    <-- DIS
      12       1.99995633       1.99402402       2.975E-03      0.54    <-- DIS
      13       1.99648098       1.99129702       2.603E-03      0.59    <-- DIS
      14       1.99344036       1.98885217       2.307E-03      0.64    <-- DIS
      15       1.99074717       1.98664172       2.067E-03      0.69    <-- DIS
      16       1.98833638       1.98462816       1.868E-03      0.74    <-- DIS
      17       1.98615855       1.98278166       1.703E-03      0.79    <-- DIS
      18       1.98417542       1.98107820       1.563E-03      0.84    <-- DIS
      19       1.98235689       1.97949821       1.444E-03      0.89    <-- DIS
      20       1.98067893       1.97802564       1.341E-03      0.94    <-- DIS
      21       1.97912212       1.97664715       1.252E-03      0.99    <-- DIS
      22       1.97767057       1.97535162       1.174E-03      1.04    <-- DIS
      23       1.97631117       1.97412965       1.105E-03      1.08    <-- DIS
      24       1.97503299       1.97297331       1.044E-03      1.13    <-- DIS
      25       1.97382682       1.97187581       9.894E-04      1.18    <-- DIS
      26       1.97268490       1.97083131       9.405E-04      1.23    <-- DIS
      27       1.97160059       1.96983480       8.964E-04      1.28    <-- DIS
      28       1.97056820       1.96888191       8.565E-04      1.33    <-- DIS
      29       1.96958282       1.96796883       8.201E-04      1.38    <-- DIS
      30       1.96864019       1.96709223       7.869E-04      1.43    <-- DIS
      31       1.96773661       1.96624918       7.565E-04      1.48    <-- DIS
      32       1.96686881       1.96543709       7.285E-04      1.53    <-- DIS
      33       1.96603394       1.96465366       7.026E-04      1.58    <-- DIS
      34       1.96522947       1.96389684       6.786E-04      1.63    <-- DIS
      35       1.96445316       1.96316482       6.563E-04      1.67    <-- DIS
      36       1.96370300       1.96245594       6.355E-04      1.72    <-- DIS
      37       1.96297722       1.96176875       6.160E-04      1.77    <-- DIS
      38       1.96227422       1.96110190       5.978E-04      1.82    <-- DIS
      39       1.96159255       1.96045420       5.807E-04      1.87    <-- DIS
      40       1.96093092       1.95982456       5.645E-04      1.92    <-- DIS
      41       1.96028815       1.95921199       5.493E-04      1.97    <-- DIS
      42       1.95966318       1.95861557       5.349E-04      2.02    <-- DIS
      43       1.95905504       1.95803449       5.212E-04      2.07    <-- DIS
      44       1.95846283       1.95746799       5.082E-04      2.12    <-- DIS
      45       1.95788576       1.95691536       4.959E-04      2.16    <-- DIS
      46       1.95732307       1.95637596       4.841E-04      2.21    <-- DIS
      47       1.95677408       1.95584921       4.729E-04      2.26    <-- DIS
      48       1.95623817       1.95533455       4.621E-04      2.31    <-- DIS
      49       1.95571475       1.95483147       4.518E-04      2.36    <-- DIS
      50       1.95520328       1.95433951       4.420E-04      2.41    <-- DIS
      51       1.95470327       1.95385822       4.325E-04      2.46    <-- DIS
      52       1.95421424       1.95338719       4.234E-04      2.51    <-- DIS
      53       1.95373578       1.95292604       4.146E-04      2.56    <-- DIS
      54       1.95326747       1.95247442       4.062E-04      2.61    <-- DIS
      55       1.95280894       1.95203198       3.980E-04      2.65    <-- DIS
      56       1.95235984       1.95159841       3.902E-04      2.70    <-- DIS
      57       1.95191984       1.95117341       3.826E-04      2.75    <-- DIS
      58       1.95148862       1.95075670       3.752E-04      2.80    <-- DIS
      59       1.95106590       1.95034803       3.681E-04      2.85    <-- DIS
      60       1.95065140       1.94994714       3.612E-04      2.90    <-- DIS
      61       1.95024486       1.94955379       3.545E-04      2.95    <-- DIS
      62       1.94984603       1.94916777       3.480E-04      3.00    <-- DIS
      63       1.94945468       1.94878885       3.417E-04      3.05    <-- DIS
      64       1.94907060       1.94841685       3.355E-04      3.10    <-- DIS
      65       1.94869357       1.94805156       3.296E-04      3.15    <-- DIS
      66       1.94832339       1.94769280       3.238E-04      3.20    <-- DIS
      67       1.94795988       1.94734041       3.181E-04      3.25    <-- DIS
      68       1.94760286       1.94699421       3.126E-04      3.29    <-- DIS
      69       1.94725215       1.94665406       3.072E-04      3.34    <-- DIS
      70       1.94690759       1.94631978       3.020E-04      3.39    <-- DIS
      71       1.94656902       1.94599125       2.969E-04      3.44    <-- DIS
      72       1.94623630       1.94566831       2.919E-04      3.49    <-- DIS
      73       1.94590928       1.94535085       2.871E-04      3.54    <-- DIS
      74       1.94558782       1.94503872       2.823E-04      3.59    <-- DIS
      75       1.94527179       1.94473181       2.777E-04      3.64    <-- DIS
      76       1.94496107       1.94442999       2.731E-04      3.69    <-- DIS
      77       1.94465553       1.94413316       2.687E-04      3.73    <-- DIS
      78       1.94435505       1.94384120       2.643E-04      3.78    <-- DIS
      79       1.94405953       1.94355401       2.601E-04      3.83    <-- DIS
      80       1.94376885       1.94327149       2.559E-04      3.88    <-- DIS
      81       1.94348291       1.94299353       2.519E-04      3.93    <-- DIS
      82       1.94320160       1.94272004       2.479E-04      3.98    <-- DIS
      83       1.94292483       1.94245092       2.440E-04      4.03    <-- DIS
      84       1.94265251       1.94218610       2.401E-04      4.08    <-- DIS
      85       1.94238454       1.94192548       2.364E-04      4.13    <-- DIS
      86       1.94212084       1.94166897       2.327E-04      4.17    <-- DIS
      87       1.94186131       1.94141651       2.291E-04      4.22    <-- DIS
      88       1.94160587       1.94116800       2.256E-04      4.27    <-- DIS
      89       1.94135446       1.94092337       2.221E-04      4.32    <-- DIS
      90       1.94110698       1.94068255       2.187E-04      4.37    <-- DIS
      91       1.94086335       1.94044546       2.154E-04      4.42    <-- DIS
      92       1.94062352       1.94021204       2.121E-04      4.47    <-- DIS
      93       1.94038740       1.93998221       2.089E-04      4.52    <-- DIS
      94       1.94015492       1.93975591       2.057E-04      4.56    <-- DIS
      95       1.93992603       1.93953308       2.026E-04      4.61    <-- DIS
      96       1.93970064       1.93931365       1.996E-04      4.66    <-- DIS
      97       1.93947870       1.93909756       1.966E-04      4.71    <-- DIS
      98       1.93926015       1.93888475       1.936E-04      4.76    <-- DIS
      99       1.93904492       1.93867516       1.907E-04      4.81    <-- DIS
     100       1.93883295       1.93846874       1.879E-04      4.86    <-- DIS
     101       1.93862419       1.93826542       1.851E-04      4.91    <-- DIS
     102       1.93841858       1.93806517       1.824E-04      4.95    <-- DIS
     103       1.93821607       1.93786791       1.797E-04      5.00    <-- DIS
     104       1.93801660       1.93767361       1.770E-04      5.05    <-- DIS
     105       1.93782012       1.93748221       1.744E-04      5.10    <-- DIS
     106       1.93762657       1.93729366       1.718E-04      5.15    <-- DIS
     107       1.93743591       1.93710792       1.693E-04      5.20    <-- DIS
     108       1.93724809       1.93692493       1.668E-04      5.25    <-- DIS
     109       1.93706306       1.93674465       1.644E-04      5.30    <-- DIS
     110       1.93688078       1.93656704       1.620E-04      5.34    <-- DIS
     111       1.93670119       1.93639205       1.597E-04      5.39    <-- DIS
     112       1.93652426       1.93621964       1.573E-04      5.44    <-- DIS
     113       1.93634994       1.93604976       1.550E-04      5.49    <-- DIS
     114       1.93617818       1.93588238       1.528E-04      5.54    <-- DIS
     115       1.93600895       1.93571745       1.506E-04      5.59    <-- DIS
     116       1.93584220       1.93555494       1.484E-04      5.64    <-- DIS
     117       1.93567790       1.93539480       1.463E-04      5.69    <-- DIS
     118       1.93551600       1.93523700       1.442E-04      5.73    <-- DIS
     119       1.93535646       1.93508150       1.421E-04      5.78    <-- DIS
     120       1.93519926       1.93492827       1.401E-04      5.83    <-- DIS
     121       1.93504434       1.93477726       1.380E-04      5.88    <-- DIS
     122       1.93489168       1.93462845       1.361E-04      5.93    <-- DIS
     123       1.93474124       1.93448180       1.341E-04      5.98    <-- DIS
     124       1.93459298       1.93433727       1.322E-04      6.03    <-- DIS
     125       1.93444687       1.93419483       1.303E-04      6.08    <-- DIS
     126       1.93430287       1.93405445       1.284E-04      6.12    <-- DIS
     127       1.93416096       1.93391609       1.266E-04      6.17    <-- DIS
     128       1.93402110       1.93377974       1.248E-04      6.22    <-- DIS
     129       1.93388326       1.93364534       1.230E-04      6.27    <-- DIS
     130       1.93374740       1.93351289       1.213E-04      6.32    <-- DIS
     131       1.93361350       1.93338233       1.196E-04      6.37    <-- DIS
     132       1.93348153       1.93325366       1.179E-04      6.42    <-- DIS
     133       1.93335146       1.93312683       1.162E-04      6.47    <-- DIS
     134       1.93322325       1.93300182       1.146E-04      6.52    <-- DIS
     135       1.93309688       1.93287860       1.129E-04      6.56    <-- DIS
     136       1.93297233       1.93275714       1.113E-04      6.61    <-- DIS
     137       1.93284956       1.93263742       1.098E-04      6.66    <-- DIS
     138       1.93272854       1.93251942       1.082E-04      6.71    <-- DIS
     139       1.93260926       1.93240310       1.067E-04      6.76    <-- DIS
     140       1.93249168       1.93228844       1.052E-04      6.81    <-- DIS
     141       1.93237578       1.93217542       1.037E-04      6.86    <-- DIS
     142       1.93226154       1.93206400       1.022E-04      6.91    <-- DIS
     143       1.93214892       1.93195418       1.008E-04      6.95    <-- DIS
     144       1.93203791       1.93184591       9.938E-05      7.00    <-- DIS
     145       1.93192848       1.93173919       9.799E-05      7.05    <-- DIS
     146       1.93182060       1.93163399       9.661E-05      7.10    <-- DIS
     147       1.93171426       1.93153028       9.525E-05      7.15    <-- DIS
     148       1.93160944       1.93142804       9.392E-05      7.20    <-- DIS
     149       1.93150610       1.93132726       9.260E-05      7.25    <-- DIS
     150       1.93140423       1.93122790       9.130E-05      7.30    <-- DIS
     151       1.93130380       1.93112995       9.002E-05      7.34    <-- DIS
     152       1.93120480       1.93103340       8.876E-05      7.39    <-- DIS
     153       1.93110720       1.93093821       8.752E-05      7.44    <-- DIS
     154       1.93101099       1.93084436       8.630E-05      7.49    <-- DIS
     155       1.93091613       1.93075185       8.509E-05      7.54    <-- DIS
     156       1.93082262       1.93066064       8.390E-05      7.59    <-- DIS
     157       1.93073044       1.93057072       8.273E-05      7.64    <-- DIS
     158       1.93063955       1.93048208       8.157E-05      7.69    <-- DIS
     159       1.93054995       1.93039468       8.043E-05      7.74    <-- DIS
     160       1.93046162       1.93030852       7.931E-05      7.78    <-- DIS
     161       1.93037453       1.93022358       7.821E-05      7.83    <-- DIS
     162       1.93028868       1.93013983       7.712E-05      7.88    <-- DIS
     163       1.93020403       1.93005727       7.604E-05      7.93    <-- DIS
     164       1.93012058       1.92997587       7.498E-05      7.98    <-- DIS
     165       1.93003831       1.92989561       7.394E-05      8.03    <-- DIS
     166       1.92995719       1.92981649       7.291E-05      8.08    <-- DIS
     167       1.92987722       1.92973848       7.189E-05      8.12    <-- DIS
     168       1.92979837       1.92966157       7.089E-05      8.17    <-- DIS
     169       1.92972064       1.92958575       6.991E-05      8.22    <-- DIS
     170       1.92964400       1.92951099       6.894E-05      8.27    <-- DIS
     171       1.92956844       1.92943728       6.798E-05      8.32    <-- DIS
     172       1.92949394       1.92936461       6.703E-05      8.37    <-- DIS
     173       1.92942049       1.92929296       6.610E-05      8.42    <-- DIS
     174       1.92934807       1.92922232       6.518E-05      8.47    <-- DIS
     175       1.92927667       1.92915267       6.428E-05      8.52    <-- DIS
     176       1.92920627       1.92908400       6.339E-05      8.56    <-- DIS
     177       1.92913686       1.92901629       6.251E-05      8.61    <-- DIS
     178       1.92906843       1.92894953       6.164E-05      8.66    <-- DIS
     179       1.92900096       1.92888371       6.078E-05      8.71    <-- DIS
     180       1.92893443       1.92881882       5.994E-05      8.76    <-- DIS
     181       1.92886884       1.92875483       5.911E-05      8.81    <-- DIS
     182       1.92880417       1.92869175       5.829E-05      8.86    <-- DIS
     183       1.92874041       1.92862955       5.748E-05      8.91    <-- DIS
     184       1.92867754       1.92856822       5.669E-05      8.95    <-- DIS
     185       1.92861555       1.92850775       5.590E-05      9.00    <-- DIS
     186       1.92855444       1.92844813       5.513E-05      9.05    <-- DIS
     187       1.92849417       1.92838934       5.436E-05      9.10    <-- DIS
     188       1.92843476       1.92833138       5.361E-05      9.15    <-- DIS
     189       1.92837617       1.92827423       5.287E-05      9.20    <-- DIS
     190       1.92831841       1.92821788       5.214E-05      9.25    <-- DIS
     191       1.92826146       1.92816232       5.142E-05      9.30    <-- DIS
     192       1.92820530       1.92810754       5.070E-05      9.34    <-- DIS
     193       1.92814993       1.92805352       5.000E-05      9.39    <-- DIS
     194       1.92809534       1.92800026       4.931E-05      9.44    <-- DIS
     195       1.92804151       1.92794775       4.863E-05      9.49    <-- DIS
     196       1.92798843       1.92789597       4.796E-05      9.54    <-- DIS
     197       1.92793610       1.92784492       4.729E-05      9.59    <-- DIS
     198       1.92788450       1.92779458       4.664E-05      9.64    <-- DIS
     199       1.92783362       1.92774495       4.600E-05      9.68    <-- DIS
     200       1.92778345       1.92769601       4.536E-05      9.73    <-- DIS
     201       1.92773398       1.92764775       4.473E-05      9.78    <-- DIS
     202       1.92768521       1.92760017       4.412E-05      9.83    <-- DIS
     203       1.92763712       1.92755326       4.351E-05      9.88    <-- DIS
     204       1.92758970       1.92750700       4.291E-05      9.93    <-- DIS
     205       1.92754294       1.92746139       4.231E-05      9.98    <-- DIS
     206       1.92749684       1.92741641       4.173E-05     10.03    <-- DIS
     207       1.92745138       1.92737207       4.115E-05     10.07    <-- DIS
     208       1.92740656       1.92732834       4.059E-05     10.12    <-- DIS
     209       1.92736237       1.92728523       4.003E-05     10.17    <-- DIS
     210       1.92731879       1.92724271       3.947E-05     10.22    <-- DIS
     211       1.92727582       1.92720080       3.893E-05     10.27    <-- DIS
     212       1.92723345       1.92715946       3.839E-05     10.32    <-- DIS
     213       1.92719168       1.92711871       3.786E-05     10.37    <-- DIS
     214       1.92715048       1.92707852       3.734E-05     10.42    <-- DIS
     215       1.92710986       1.92703890       3.683E-05     10.46    <-- DIS
     216       1.92706981       1.92699983       3.632E-05     10.51    <-- DIS
     217       1.92703032       1.92696131       3.582E-05     10.56    <-- DIS
     218       1.92699139       1.92692332       3.532E-05     10.61    <-- DIS
     219       1.92695299       1.92688587       3.484E-05     10.66    <-- DIS
     220       1.92691513       1.92684893       3.436E-05     10.71    <-- DIS
     221       1.92687780       1.92681252       3.388E-05     10.76    <-- DIS
     222       1.92684099       1.92677661       3.342E-05     10.80    <-- DIS
     223       1.92680470       1.92674120       3.296E-05     10.85    <-- DIS
     224       1.92676891       1.92670629       3.250E-05     10.90    <-- DIS
     225       1.92673362       1.92667186       3.205E-05     10.95    <-- DIS
     226       1.92669883       1.92663792       3.161E-05     11.00    <-- DIS
     227       1.92666452       1.92660445       3.118E-05     11.05    <-- DIS
     228       1.92663068       1.92657145       3.075E-05     11.10    <-- DIS
     229       1.92659733       1.92653890       3.032E-05     11.15    <-- DIS
     230       1.92656443       1.92650682       2.991E-05     11.19    <-- DIS
     231       1.92653200       1.92647518       2.949E-05     11.24    <-- DIS
     232       1.92650002       1.92644398       2.909E-05     11.29    <-- DIS
     233       1.92646848       1.92641322       2.869E-05     11.34    <-- DIS
     234       1.92643739       1.92638288       2.829E-05     11.39    <-- DIS
     235       1.92640673       1.92635297       2.790E-05     11.44    <-- DIS
     236       1.92637649       1.92632348       2.752E-05     11.49    <-- DIS
     237       1.92634668       1.92629440       2.714E-05     11.53    <-- DIS
     238       1.92631729       1.92626572       2.677E-05     11.58    <-- DIS
     239       1.92628830       1.92623745       2.640E-05     11.63    <-- DIS
     240       1.92625972       1.92620957       2.604E-05     11.68    <-- DIS
     241       1.92623154       1.92618208       2.568E-05     11.73    <-- DIS
     242       1.92620375       1.92615497       2.533E-05     11.78    <-- DIS
     243       1.92617635       1.92612824       2.498E-05     11.83    <-- DIS
     244       1.92614933       1.92610188       2.463E-05     11.87    <-- DIS
     245       1.92612269       1.92607589       2.430E-05     11.92    <-- DIS
     246       1.92609642       1.92605027       2.396E-05     11.97    <-- DIS
     247       1.92607051       1.92602500       2.363E-05     12.02    <-- DIS
     248       1.92604497       1.92600008       2.331E-05     12.07    <-- DIS
     249       1.92601979       1.92597551       2.299E-05     12.12    <-- DIS
     250       1.92599495       1.92595129       2.267E-05     12.17    <-- DIS
     251       1.92597046       1.92592740       2.236E-05     12.22    <-- DIS
     252       1.92594632       1.92590385       2.205E-05     12.26    <-- DIS
     253       1.92592251       1.92588062       2.175E-05     12.31    <-- DIS
     254       1.92589903       1.92585772       2.145E-05     12.36    <-- DIS
     255       1.92587588       1.92583514       2.116E-05     12.41    <-- DIS
     256       1.92585305       1.92581287       2.087E-05     12.46    <-- DIS
     257       1.92583054       1.92579091       2.058E-05     12.51    <-- DIS
     258       1.92580835       1.92576926       2.030E-05     12.56    <-- DIS
     259       1.92578646       1.92574791       2.002E-05     12.60    <-- DIS
     260       1.92576488       1.92572686       1.974E-05     12.65    <-- DIS
     261       1.92574360       1.92570611       1.947E-05     12.70    <-- DIS
     262       1.92572262       1.92568564       1.920E-05     12.75    <-- DIS
     263       1.92570193       1.92566546       1.894E-05     12.80    <-- DIS
     264       1.92568153       1.92564556       1.868E-05     12.85    <-- DIS
     265       1.92566141       1.92562593       1.842E-05     12.90    <-- DIS
     266       1.92564158       1.92560659       1.817E-05     12.94    <-- DIS
     267       1.92562202       1.92558751       1.792E-05     12.99    <-- DIS
     268       1.92560273       1.92556869       1.768E-05     13.04    <-- DIS
     269       1.92558371       1.92555014       1.743E-05     13.09    <-- DIS
     270       1.92556496       1.92553185       1.719E-05     13.14    <-- DIS
     271       1.92554647       1.92551382       1.696E-05     13.19    <-- DIS
     272       1.92552824       1.92549603       1.673E-05     13.24    <-- DIS
     273       1.92551026       1.92547849       1.650E-05     13.29    <-- DIS
     274       1.92549253       1.92546120       1.627E-05     13.34    <-- DIS
     275       1.92547505       1.92544415       1.605E-05     13.38    <-- DIS
     276       1.92545781       1.92542734       1.583E-05     13.43    <-- DIS
     277       1.92544082       1.92541076       1.561E-05     13.48    <-- DIS
     278       1.92542406       1.92539441       1.540E-05     13.53    <-- DIS
     279       1.92540753       1.92537829       1.519E-05     13.58    <-- DIS
     280       1.92539124       1.92536240       1.498E-05     13.63    <-- DIS
     281       1.92537517       1.92534673       1.477E-05     13.68    <-- DIS
     282       1.92535932       1.92533127       1.457E-05     13.73    <-- DIS
     283       1.92534370       1.92531603       1.437E-05     13.77    <-- DIS
     284       1.92532830       1.92530101       1.417E-05     13.82    <-- DIS
     285       1.92531311       1.92528619       1.398E-05     13.87    <-- DIS
     286       1.92529813       1.92527158       1.379E-05     13.92    <-- DIS
     287       1.92528336       1.92525718       1.360E-05     13.97    <-- DIS
     288       1.92526879       1.92524297       1.341E-05     14.02    <-- DIS
     289       1.92525443       1.92522896       1.323E-05     14.07    <-- DIS
     290       1.92524027       1.92521515       1.305E-05     14.12    <-- DIS
     291       1.92522631       1.92520153       1.287E-05     14.16    <-- DIS
     292       1.92521254       1.92518811       1.269E-05     14.21    <-- DIS
     293       1.92519897       1.92517486       1.252E-05     14.26    <-- DIS
     294       1.92518558       1.92516181       1.235E-05     14.31    <-- DIS
     295       1.92517238       1.92514893       1.218E-05     14.36    <-- DIS
     296       1.92515936       1.92513624       1.201E-05     14.41    <-- DIS
     297       1.92514653       1.92512372       1.185E-05     14.46    <-- DIS
     298       1.92513387       1.92511138       1.169E-05     14.51    <-- DIS
     299       1.92512140       1.92509921       1.153E-05     14.55    <-- DIS
     300       1.92510909       1.92508720       1.137E-05     14.60    <-- DIS
     301       1.92509696       1.92507537       1.121E-05     14.65    <-- DIS
     302       1.92508499       1.92506370       1.106E-05     14.70    <-- DIS
     303       1.92507320       1.92505220       1.091E-05     14.75    <-- DIS
     304       1.92506156       1.92504085       1.076E-05     14.80    <-- DIS
     305       1.92505009       1.92502966       1.061E-05     14.85    <-- DIS
     306       1.92503878       1.92501863       1.047E-05     14.90    <-- DIS
     307       1.92502763       1.92500776       1.032E-05     14.94    <-- DIS
     308       1.92501663       1.92499703       1.018E-05     14.99    <-- DIS
     309       1.92500579       1.92498645       1.004E-05     15.04    <-- DIS
     310       1.92499510       1.92497603       9.907E-06     15.09    <-- DIS
     311       1.92498455       1.92496574       9.772E-06     15.14    <-- DIS
     312       1.92497416       1.92495560       9.639E-06     15.19    <-- DIS
     313       1.92496391       1.92494561       9.507E-06     15.24    <-- DIS
     314       1.92495380       1.92493575       9.377E-06     15.29    <-- DIS
     315       1.92494383       1.92492603       9.249E-06     15.33    <-- DIS
     316       1.92493400       1.92491644       9.123E-06     15.38    <-- DIS
     317       1.92492431       1.92490699       8.999E-06     15.43    <-- DIS
     318       1.92491475       1.92489767       8.876E-06     15.48    <-- DIS
     319       1.92490533       1.92488848       8.755E-06     15.53    <-- DIS
     320       1.92489604       1.92487942       8.635E-06     15.58    <-- DIS
     321       1.92488688       1.92487048       8.518E-06     15.63    <-- DIS
     322       1.92487784       1.92486167       8.401E-06     15.68    <-- DIS
     323       1.92486894       1.92485299       8.287E-06     15.73    <-- DIS
     324       1.92486015       1.92484442       8.174E-06     15.77    <-- DIS
     325       1.92485149       1.92483597       8.062E-06     15.82    <-- DIS
     326       1.92484295       1.92482764       7.953E-06     15.87    <-- DIS
     327       1.92483453       1.92481943       7.844E-06     15.92    <-- DIS
     328       1.92482623       1.92481133       7.737E-06     15.97    <-- DIS
     329       1.92481804       1.92480335       7.632E-06     16.02    <-- DIS
     330       1.92480996       1.92479547       7.528E-06     16.06    <-- DIS
     331       1.92480200       1.92478771       7.425E-06     16.11    <-- DIS
     332       1.92479415       1.92478006       7.324E-06     16.16    <-- DIS
     333       1.92478641       1.92477251       7.224E-06     16.21    <-- DIS
     334       1.92477878       1.92476506       7.126E-06     16.26    <-- DIS
     335       1.92477125       1.92475772       7.029E-06     16.31    <-- DIS
     336       1.92476383       1.92475049       6.933E-06     16.36    <-- DIS
     337       1.92475651       1.92474335       6.839E-06     16.40    <-- DIS
     338       1.92474930       1.92473631       6.746E-06     16.45    <-- DIS
     339       1.92474218       1.92472938       6.654E-06     16.50    <-- DIS
     340       1.92473517       1.92472253       6.564E-06     16.55    <-- DIS
     341       1.92472825       1.92471579       6.474E-06     16.60    <-- DIS
     342       1.92472143       1.92470914       6.386E-06     16.65    <-- DIS
     343       1.92471470       1.92470258       6.300E-06     16.70    <-- DIS
     344       1.92470807       1.92469611       6.214E-06     16.75    <-- DIS
     345       1.92470153       1.92468973       6.130E-06     16.79    <-- DIS
     346       1.92469508       1.92468344       6.046E-06     16.84    <-- DIS
     347       1.92468872       1.92467724       5.964E-06     16.89    <-- DIS
     348       1.92468245       1.92467113       5.883E-06     16.94    <-- DIS
     349       1.92467627       1.92466510       5.803E-06     16.99    <-- DIS
     350       1.92467017       1.92465916       5.724E-06     17.04    <-- DIS
     351       1.92466416       1.92465329       5.647E-06     17.08    <-- DIS
     352       1.92465824       1.92464752       5.570E-06     17.13    <-- DIS
     353       1.92465239       1.92464182       5.494E-06     17.18    <-- DIS
     354       1.92464663       1.92463620       5.420E-06     17.23    <-- DIS
     355       1.92464094       1.92463066       5.346E-06     17.28    <-- DIS
     356       1.92463534       1.92462519       5.274E-06     17.33    <-- DIS
     357       1.92462982       1.92461980       5.202E-06     17.38    <-- DIS
     358       1.92462437       1.92461449       5.132E-06     17.42    <-- DIS
     359       1.92461900       1.92460925       5.062E-06     17.47    <-- DIS
     360       1.92461370       1.92460409       4.993E-06     17.52    <-- DIS
     361       1.92460847       1.92459899       4.926E-06     17.57    <-- DIS
     362       1.92460332       1.92459397       4.859E-06     17.62    <-- DIS
     363       1.92459825       1.92458902       4.793E-06     17.67    <-- DIS
     364       1.92459324       1.92458414       4.728E-06     17.72    <-- DIS
     365       1.92458830       1.92457932       4.664E-06     17.76    <-- DIS
     366       1.92458343       1.92457458       4.601E-06     17.81    <-- DIS
     367       1.92457863       1.92456989       4.539E-06     17.86    <-- DIS
     368       1.92457390       1.92456528       4.477E-06     17.91    <-- DIS
     369       1.92456923       1.92456073       4.417E-06     17.96    <-- DIS
     370       1.92456462       1.92455624       4.357E-06     18.01    <-- DIS
     371       1.92456009       1.92455181       4.298E-06     18.06    <-- DIS
     372       1.92455561       1.92454745       4.240E-06     18.10    <-- DIS
     373       1.92455120       1.92454315       4.182E-06     18.15    <-- DIS
     374       1.92454685       1.92453891       4.126E-06     18.20    <-- DIS
     375       1.92454256       1.92453472       4.070E-06     18.25    <-- DIS
     376       1.92453832       1.92453060       4.015E-06     18.30    <-- DIS
     377       1.92453415       1.92452653       3.961E-06     18.35    <-- DIS
     378       1.92453004       1.92452252       3.907E-06     18.40    <-- DIS
     379       1.92452598       1.92451856       3.855E-06     18.44    <-- DIS
     380       1.92452198       1.92451466       3.802E-06     18.49    <-- DIS
     381       1.92451804       1.92451082       3.751E-06     18.54    <-- DIS
     382       1.92451415       1.92450703       3.700E-06     18.59    <-- DIS
     383       1.92451032       1.92450329       3.651E-06     18.64    <-- DIS
     384       1.92450653       1.92449960       3.601E-06     18.69    <-- DIS
     385       1.92450281       1.92449597       3.553E-06     18.74    <-- DIS
     386       1.92449913       1.92449239       3.505E-06     18.78    <-- DIS
     387       1.92449551       1.92448885       3.457E-06     18.83    <-- DIS
     388       1.92449193       1.92448537       3.411E-06     18.88    <-- DIS
     389       1.92448841       1.92448193       3.365E-06     18.93    <-- DIS
     390       1.92448493       1.92447854       3.320E-06     18.98    <-- DIS
     391       1.92448150       1.92447520       3.275E-06     19.03    <-- DIS
     392       1.92447812       1.92447191       3.231E-06     19.07    <-- DIS
     393       1.92447479       1.92446866       3.187E-06     19.12    <-- DIS
     394       1.92447151       1.92446546       3.144E-06     19.17    <-- DIS
     395       1.92446827       1.92446230       3.102E-06     19.22    <-- DIS
     396       1.92446507       1.92445918       3.060E-06     19.27    <-- DIS
     397       1.92446192       1.92445611       3.019E-06     19.32    <-- DIS
     398       1.92445882       1.92445309       2.978E-06     19.37    <-- DIS
     399       1.92445576       1.92445010       2.938E-06     19.41    <-- DIS
     400       1.92445274       1.92444716       2.899E-06     19.46    <-- DIS
     401       1.92444976       1.92444425       2.860E-06     19.51    <-- DIS
     402       1.92444682       1.92444139       2.821E-06     19.56    <-- DIS
     403       1.92444393       1.92443857       2.784E-06     19.61    <-- DIS
     404       1.92444107       1.92443579       2.746E-06     19.66    <-- DIS
     405       1.92443826       1.92443304       2.709E-06     19.70    <-- DIS
     406       1.92443548       1.92443034       2.673E-06     19.75    <-- DIS
     407       1.92443274       1.92442767       2.637E-06     19.80    <-- DIS
     408       1.92443005       1.92442504       2.602E-06     19.85    <-- DIS
     409       1.92442738       1.92442245       2.567E-06     19.90    <-- DIS
     410       1.92442476       1.92441989       2.532E-06     19.95    <-- DIS
     411       1.92442217       1.92441737       2.498E-06     20.00    <-- DIS
     412       1.92441962       1.92441488       2.465E-06     20.04    <-- DIS
     413       1.92441711       1.92441243       2.432E-06     20.09    <-- DIS
     414       1.92441463       1.92441001       2.399E-06     20.14    <-- DIS
     415       1.92441218       1.92440762       2.367E-06     20.19    <-- DIS
     416       1.92440977       1.92440527       2.335E-06     20.24    <-- DIS
     417       1.92440739       1.92440296       2.304E-06     20.29    <-- DIS
     418       1.92440505       1.92440067       2.273E-06     20.34    <-- DIS
     419       1.92440273       1.92439842       2.243E-06     20.38    <-- DIS
     420       1.92440045       1.92439619       2.213E-06     20.43    <-- DIS
     421       1.92439820       1.92439400       2.183E-06     20.48    <-- DIS
     422       1.92439599       1.92439184       2.154E-06     20.53    <-- DIS
     423       1.92439380       1.92438971       2.125E-06     20.58    <-- DIS
     424       1.92439165       1.92438761       2.097E-06     20.63    <-- DIS
     425       1.92438952       1.92438554       2.069E-06     20.67    <-- DIS
     426       1.92438743       1.92438350       2.041E-06     20.72    <-- DIS
     427       1.92438536       1.92438148       2.014E-06     20.77    <-- DIS
     428       1.92438332       1.92437950       1.987E-06     20.82    <-- DIS
     429       1.92438131       1.92437754       1.961E-06     20.87    <-- DIS
     430       1.92437933       1.92437561       1.934E-06     20.92    <-- DIS
     431       1.92437738       1.92437371       1.909E-06     20.96    <-- DIS
     432       1.92437545       1.92437183       1.883E-06     21.01    <-- DIS
     433       1.92437355       1.92436998       1.858E-06     21.06    <-- DIS
     434       1.92437168       1.92436815       1.833E-06     21.11    <-- DIS
     435       1.92436983       1.92436635       1.809E-06     21.16    <-- DIS
     436       1.92436801       1.92436458       1.785E-06     21.21    <-- DIS
     437       1.92436622       1.92436283       1.761E-06     21.26    <-- DIS
     438       1.92436445       1.92436110       1.738E-06     21.30    <-- DIS
     439       1.92436270       1.92435940       1.714E-06     21.35    <-- DIS
     440       1.92436098       1.92435772       1.692E-06     21.40    <-- DIS
     441       1.92435928       1.92435607       1.669E-06     21.45    <-- DIS
     442       1.92435761       1.92435444       1.647E-06     21.50    <-- DIS
     443       1.92435596       1.92435283       1.625E-06     21.55    <-- DIS
     444       1.92435433       1.92435125       1.603E-06     21.60    <-- DIS
     445       1.92435273       1.92434968       1.582E-06     21.64    <-- DIS
     446       1.92435114       1.92434814       1.561E-06     21.69    <-- DIS
     447       1.92434958       1.92434662       1.540E-06     21.74    <-- DIS
     448       1.92434805       1.92434512       1.520E-06     21.79    <-- DIS
     449       1.92434653       1.92434364       1.500E-06     21.84    <-- DIS
     450       1.92434503       1.92434219       1.480E-06     21.89    <-- DIS
     451       1.92434356       1.92434075       1.460E-06     21.93    <-- DIS
     452       1.92434210       1.92433933       1.441E-06     21.98    <-- DIS
     453       1.92434067       1.92433793       1.422E-06     22.03    <-- DIS
     454       1.92433926       1.92433656       1.403E-06     22.08    <-- DIS
     455       1.92433786       1.92433520       1.384E-06     22.13    <-- DIS
     456       1.92433649       1.92433386       1.366E-06     22.18    <-- DIS
     457       1.92433513       1.92433254       1.348E-06     22.23    <-- DIS
     458       1.92433380       1.92433124       1.330E-06     22.27    <-- DIS
     459       1.92433248       1.92432995       1.313E-06     22.32    <-- DIS
     460       1.92433118       1.92432868       1.295E-06     22.37    <-- DIS
     461       1.92432990       1.92432744       1.278E-06     22.42    <-- DIS
     462       1.92432863       1.92432621       1.261E-06     22.47    <-- DIS
     463       1.92432739       1.92432499       1.245E-06     22.52    <-- DIS
     464       1.92432616       1.92432379       1.228E-06     22.57    <-- DIS
     465       1.92432495       1.92432261       1.212E-06     22.61    <-- DIS
     466       1.92432375       1.92432145       1.196E-06     22.66    <-- DIS
     467       1.92432257       1.92432030       1.180E-06     22.71    <-- DIS
     468       1.92432141       1.92431917       1.165E-06     22.76    <-- DIS
     469       1.92432027       1.92431806       1.149E-06     22.81    <-- DIS
     470       1.92431914       1.92431696       1.134E-06     22.86    <-- DIS
     471       1.92431802       1.92431587       1.119E-06     22.90    <-- DIS
     472       1.92431693       1.92431480       1.105E-06     22.95    <-- DIS
     473       1.92431584       1.92431375       1.090E-06     23.00    <-- DIS
     474       1.92431478       1.92431271       1.076E-06     23.05    <-- DIS
     475       1.92431372       1.92431168       1.062E-06     23.10    <-- DIS
     476       1.92431269       1.92431067       1.048E-06     23.15    <-- DIS
     477       1.92431166       1.92430967       1.034E-06     23.20    <-- DIS
     478       1.92431065       1.92430869       1.020E-06     23.25    <-- DIS
     479       1.92430966       1.92430772       1.007E-06     23.29    <-- DIS
     480       1.92430868       1.92430676       9.937E-07     23.34    <-- DIS
     481       1.92430771       1.92430582       9.807E-07     23.39    <-- DIS
     482       1.92430676       1.92430489       9.678E-07     23.44    <-- DIS
     483       1.92430581       1.92430398       9.551E-07     23.49    <-- DIS
     484       1.92430489       1.92430307       9.426E-07     23.54    <-- DIS
     485       1.92430397       1.92430218       9.303E-07     23.59    <-- DIS
     486       1.92430307       1.92430130       9.181E-07     23.63    <-- DIS
     487       1.92430218       1.92430044       9.061E-07     23.68    <-- DIS
     488       1.92430130       1.92429958       8.943E-07     23.73    <-- DIS
     489       1.92430044       1.92429874       8.826E-07     23.78    <-- DIS
     490       1.92429959       1.92429791       8.710E-07     23.83    <-- DIS
     491       1.92429875       1.92429709       8.597E-07     23.88    <-- DIS
     492       1.92429792       1.92429629       8.484E-07     23.93    <-- DIS
     493       1.92429710       1.92429549       8.374E-07     23.97    <-- DIS
     494       1.92429629       1.92429470       8.264E-07     24.02    <-- DIS
     495       1.92429550       1.92429393       8.157E-07     24.07    <-- DIS
     496       1.92429472       1.92429317       8.050E-07     24.12    <-- DIS
     497       1.92429394       1.92429241       7.945E-07     24.17    <-- DIS
     498       1.92429318       1.92429167       7.842E-07     24.22    <-- DIS
     499       1.92429243       1.92429094       7.740E-07     24.26    <-- DIS
     500       1.92429169       1.92429022       7.639E-07     24.31    <-- DIS
     501       1.92429096       1.92428951       7.540E-07     24.36    <-- DIS
     502       1.92429024       1.92428881       7.442E-07     24.41    <-- DIS
     503       1.92428953       1.92428811       7.345E-07     24.46    <-- DIS
     504       1.92428883       1.92428743       7.250E-07     24.51    <-- DIS
     505       1.92428814       1.92428676       7.156E-07     24.56    <-- DIS
     506       1.92428746       1.92428610       7.063E-07     24.60    <-- DIS
     507       1.92428678       1.92428544       6.971E-07     24.65    <-- DIS
     508       1.92428612       1.92428480       6.881E-07     24.70    <-- DIS
     509       1.92428547       1.92428416       6.792E-07     24.75    <-- DIS
     510       1.92428483       1.92428354       6.704E-07     24.80    <-- DIS
     511       1.92428419       1.92428292       6.617E-07     24.85    <-- DIS
     512       1.92428357       1.92428231       6.531E-07     24.90    <-- DIS
     513       1.92428295       1.92428171       6.447E-07     24.94    <-- DIS
     514       1.92428234       1.92428112       6.364E-07     24.99    <-- DIS
     515       1.92428174       1.92428053       6.281E-07     25.04    <-- DIS
     516       1.92428115       1.92427996       6.200E-07     25.09    <-- DIS
     517       1.92428057       1.92427939       6.120E-07     25.14    <-- DIS
     518       1.92427999       1.92427883       6.041E-07     25.19    <-- DIS
     519       1.92427942       1.92427827       5.963E-07     25.24    <-- DIS
     520       1.92427886       1.92427773       5.886E-07     25.28    <-- DIS
     521       1.92427831       1.92427719       5.811E-07     25.33    <-- DIS
     522       1.92427777       1.92427666       5.736E-07     25.38    <-- DIS
     523       1.92427723       1.92427614       5.662E-07     25.43    <-- DIS
     524       1.92427670       1.92427563       5.589E-07     25.48    <-- DIS
     525       1.92427618       1.92427512       5.517E-07     25.53    <-- DIS
     526       1.92427567       1.92427462       5.446E-07     25.58    <-- DIS
     527       1.92427516       1.92427413       5.376E-07     25.62    <-- DIS
     528       1.92427466       1.92427364       5.307E-07     25.67    <-- DIS
     529       1.92427417       1.92427316       5.239E-07     25.72    <-- DIS
     530       1.92427368       1.92427269       5.172E-07     25.77    <-- DIS
     531       1.92427320       1.92427222       5.106E-07     25.82    <-- DIS
     532       1.92427273       1.92427176       5.040E-07     25.87    <-- DIS
     533       1.92427226       1.92427131       4.976E-07     25.92    <-- DIS
     534       1.92427180       1.92427086       4.912E-07     25.96    <-- DIS
     535       1.92427135       1.92427042       4.849E-07     26.01    <-- DIS
     536       1.92427090       1.92426998       4.787E-07     26.06    <-- DIS
     537       1.92427046       1.92426955       4.726E-07     26.11    <-- DIS
     538       1.92427003       1.92426913       4.666E-07     26.16    <-- DIS
     539       1.92426960       1.92426872       4.606E-07     26.21    <-- DIS
     540       1.92426918       1.92426830       4.547E-07     26.26    <-- DIS
     541       1.92426876       1.92426790       4.489E-07     26.30    <-- DIS
     542       1.92426835       1.92426750       4.432E-07     26.35    <-- DIS
     543       1.92426795       1.92426711       4.376E-07     26.40    <-- DIS
     544       1.92426755       1.92426672       4.320E-07     26.45    <-- DIS
     545       1.92426715       1.92426633       4.265E-07     26.50    <-- DIS
     546       1.92426677       1.92426596       4.211E-07     26.55    <-- DIS
     547       1.92426638       1.92426558       4.157E-07     26.60    <-- DIS
     548       1.92426601       1.92426522       4.105E-07     26.64    <-- DIS
     549       1.92426563       1.92426485       4.053E-07     26.69    <-- DIS
     550       1.92426527       1.92426450       4.001E-07     26.74    <-- DIS
     551       1.92426490       1.92426414       3.950E-07     26.79    <-- DIS
     552       1.92426455       1.92426380       3.900E-07     26.84    <-- DIS
     553       1.92426420       1.92426346       3.851E-07     26.89    <-- DIS
     554       1.92426385       1.92426312       3.802E-07     26.94    <-- DIS
     555       1.92426351       1.92426278       3.754E-07     26.98    <-- DIS
     556       1.92426317       1.92426246       3.707E-07     27.03    <-- DIS
     557       1.92426284       1.92426213       3.660E-07     27.08    <-- DIS
     558       1.92426251       1.92426181       3.614E-07     27.13    <-- DIS
     559       1.92426219       1.92426150       3.568E-07     27.18    <-- DIS
     560       1.92426187       1.92426119       3.523E-07     27.23    <-- DIS
     561       1.92426155       1.92426088       3.479E-07     27.27    <-- DIS
     562       1.92426124       1.92426058       3.435E-07     27.32    <-- DIS
     563       1.92426094       1.92426028       3.392E-07     27.37    <-- DIS
     564       1.92426064       1.92425999       3.349E-07     27.42    <-- DIS
     565       1.92426034       1.92425970       3.307E-07     27.47    <-- DIS
     566       1.92426005       1.92425942       3.265E-07     27.52    <-- DIS
     567       1.92425976       1.92425914       3.224E-07     27.57    <-- DIS
     568       1.92425947       1.92425886       3.184E-07     27.61    <-- DIS
     569       1.92425919       1.92425859       3.144E-07     27.66    <-- DIS
     570       1.92425891       1.92425832       3.104E-07     27.71    <-- DIS
     571       1.92425864       1.92425805       3.066E-07     27.76    <-- DIS
     572       1.92425837       1.92425779       3.027E-07     27.81    <-- DIS
     573       1.92425810       1.92425753       2.989E-07     27.86    <-- DIS
     574       1.92425784       1.92425727       2.952E-07     27.91    <-- DIS
     575       1.92425758       1.92425702       2.915E-07     27.96    <-- DIS
     576       1.92425733       1.92425678       2.879E-07     28.00    <-- DIS
     577       1.92425708       1.92425653       2.843E-07     28.05    <-- DIS
     578       1.92425683       1.92425629       2.807E-07     28.10    <-- DIS
     579       1.92425659       1.92425605       2.772E-07     28.15    <-- DIS
     580       1.92425635       1.92425582       2.738E-07     28.20    <-- DIS
     581       1.92425611       1.92425559       2.704E-07     28.25    <-- DIS
     582       1.92425587       1.92425536       2.670E-07     28.30    <-- DIS
     583       1.92425564       1.92425514       2.637E-07     28.34    <-- DIS
     584       1.92425542       1.92425491       2.604E-07     28.39    <-- DIS
     585       1.92425519       1.92425470       2.572E-07     28.44    <-- DIS
     586       1.92425497       1.92425448       2.540E-07     28.49    <-- DIS
     587       1.92425475       1.92425427       2.509E-07     28.54    <-- DIS
     588       1.92425454       1.92425406       2.478E-07     28.59    <-- DIS
     589       1.92425432       1.92425385       2.447E-07     28.64    <-- DIS
     590       1.92425412       1.92425365       2.417E-07     28.68    <-- DIS
     591       1.92425391       1.92425345       2.387E-07     28.73    <-- DIS
     592       1.92425371       1.92425325       2.357E-07     28.78    <-- DIS
     593       1.92425350       1.92425306       2.328E-07     28.83    <-- DIS
     594       1.92425331       1.92425286       2.299E-07     28.88    <-- DIS
     595       1.92425311       1.92425267       2.271E-07     28.93    <-- DIS
     596       1.92425292       1.92425249       2.243E-07     28.98    <-- DIS
     597       1.92425273       1.92425230       2.216E-07     29.02    <-- DIS
     598       1.92425254       1.92425212       2.188E-07     29.07    <-- DIS
     599       1.92425236       1.92425194       2.161E-07     29.12    <-- DIS
     600       1.92425218       1.92425177       2.135E-07     29.17    <-- DIS
     601       1.92425200       1.92425159       2.109E-07     29.22    <-- DIS
     602       1.92425182       1.92425142       2.083E-07     29.27    <-- DIS
     603       1.92425165       1.92425125       2.057E-07     29.32    <-- DIS
     604       1.92425147       1.92425108       2.032E-07     29.36    <-- DIS
     605       1.92425130       1.92425092       2.007E-07     29.41    <-- DIS
     606       1.92425114       1.92425076       1.983E-07     29.46    <-- DIS
     607       1.92425097       1.92425060       1.959E-07     29.51    <-- DIS
     608       1.92425081       1.92425044       1.935E-07     29.56    <-- DIS
     609       1.92425065       1.92425028       1.911E-07     29.61    <-- DIS
     610       1.92425049       1.92425013       1.888E-07     29.66    <-- DIS
     611       1.92425034       1.92424998       1.865E-07     29.70    <-- DIS
     612       1.92425018       1.92424983       1.842E-07     29.75    <-- DIS
     613       1.92425003       1.92424968       1.820E-07     29.80    <-- DIS
     614       1.92424988       1.92424954       1.798E-07     29.85    <-- DIS
     615       1.92424973       1.92424939       1.776E-07     29.90    <-- DIS
     616       1.92424959       1.92424925       1.754E-07     29.95    <-- DIS
     617       1.92424945       1.92424911       1.733E-07     30.00    <-- DIS
     618       1.92424930       1.92424898       1.712E-07     30.04    <-- DIS
     619       1.92424917       1.92424884       1.691E-07     30.09    <-- DIS
     620       1.92424903       1.92424871       1.671E-07     30.14    <-- DIS
     621       1.92424889       1.92424858       1.651E-07     30.19    <-- DIS
     622       1.92424876       1.92424845       1.631E-07     30.24    <-- DIS
     623       1.92424863       1.92424832       1.611E-07     30.29    <-- DIS
     624       1.92424850       1.92424819       1.592E-07     30.34    <-- DIS
     625       1.92424837       1.92424807       1.572E-07     30.38    <-- DIS
     626       1.92424824       1.92424794       1.553E-07     30.43    <-- DIS
     627       1.92424812       1.92424782       1.535E-07     30.48    <-- DIS
     628       1.92424800       1.92424770       1.516E-07     30.53    <-- DIS
     629       1.92424788       1.92424759       1.498E-07     30.58    <-- DIS
     630       1.92424776       1.92424747       1.480E-07     30.63    <-- DIS
     631       1.92424764       1.92424736       1.462E-07     30.68    <-- DIS
     632       1.92424752       1.92424724       1.445E-07     30.72    <-- DIS
     633       1.92424741       1.92424713       1.428E-07     30.77    <-- DIS
     634       1.92424730       1.92424702       1.411E-07     30.82    <-- DIS
     635       1.92424718       1.92424692       1.394E-07     30.87    <-- DIS
     636       1.92424707       1.92424681       1.377E-07     30.92    <-- DIS
     637       1.92424697       1.92424670       1.361E-07     30.97    <-- DIS
     638       1.92424686       1.92424660       1.344E-07     31.01    <-- DIS
     639       1.92424675       1.92424650       1.328E-07     31.06    <-- DIS
     640       1.92424665       1.92424640       1.313E-07     31.11    <-- DIS
     641       1.92424655       1.92424630       1.297E-07     31.16    <-- DIS
     642       1.92424645       1.92424620       1.282E-07     31.21    <-- DIS
     643       1.92424635       1.92424610       1.266E-07     31.26    <-- DIS
     644       1.92424625       1.92424601       1.251E-07     31.31    <-- DIS
     645       1.92424615       1.92424592       1.237E-07     31.35    <-- DIS
     646       1.92424606       1.92424582       1.222E-07     31.40    <-- DIS
     647       1.92424596       1.92424573       1.208E-07     31.45    <-- DIS
     648       1.92424587       1.92424564       1.193E-07     31.50    <-- DIS
     649       1.92424578       1.92424555       1.179E-07     31.55    <-- DIS
     650       1.92424569       1.92424547       1.165E-07     31.60    <-- DIS
     651       1.92424560       1.92424538       1.152E-07     31.65    <-- DIS
     652       1.92424551       1.92424529       1.138E-07     31.69    <-- DIS
     653       1.92424543       1.92424521       1.125E-07     31.74    <-- DIS
     654       1.92424534       1.92424513       1.111E-07     31.79    <-- DIS
     655       1.92424526       1.92424505       1.098E-07     31.84    <-- DIS
     656       1.92424517       1.92424497       1.085E-07     31.89    <-- DIS
     657       1.92424509       1.92424489       1.073E-07     31.94    <-- DIS
     658       1.92424501       1.92424481       1.060E-07     31.99    <-- DIS
     659       1.92424493       1.92424473       1.048E-07     32.03    <-- DIS
     660       1.92424485       1.92424466       1.036E-07     32.08    <-- DIS
     661       1.92424478       1.92424458       1.023E-07     32.13    <-- DIS
     662       1.92424470       1.92424451       1.012E-07     32.18    <-- DIS
     663       1.92424463       1.92424443       9.997E-08     32.23    <-- DIS
     664       1.92424455       1.92424436       9.881E-08     32.28    <-- DIS
     665       1.92424448       1.92424429       9.766E-08     32.33    <-- DIS
     666       1.92424441       1.92424422       9.653E-08     32.37    <-- DIS
     667       1.92424434       1.92424415       9.540E-08     32.42    <-- DIS
     668       1.92424427       1.92424408       9.430E-08     32.47    <-- DIS
     669       1.92424420       1.92424402       9.321E-08     32.52    <-- DIS
     670       1.92424413       1.92424395       9.213E-08     32.57    <-- DIS
     671       1.92424406       1.92424389       9.106E-08     32.62    <-- DIS
     672       1.92424400       1.92424382       9.001E-08     32.67    <-- DIS
     673       1.92424393       1.92424376       8.897E-08     32.71    <-- DIS
     674       1.92424387       1.92424370       8.794E-08     32.76    <-- DIS
     675       1.92424380       1.92424363       8.693E-08     32.81    <-- DIS
     676       1.92424374       1.92424357       8.593E-08     32.86    <-- DIS
     677       1.92424368       1.92424351       8.494E-08     32.91    <-- DIS
     678       1.92424362       1.92424346       8.397E-08     32.96    <-- DIS
     679       1.92424356       1.92424340       8.300E-08     33.01    <-- DIS
     680       1.92424350       1.92424334       8.205E-08     33.05    <-- DIS
     681       1.92424344       1.92424328       8.111E-08     33.10    <-- DIS
     682       1.92424338       1.92424323       8.018E-08     33.15    <-- DIS
     683       1.92424333       1.92424317       7.927E-08     33.20    <-- DIS
     684       1.92424327       1.92424312       7.836E-08     33.25    <-- DIS
     685       1.92424321       1.92424307       7.747E-08     33.30    <-- DIS
     686       1.92424316       1.92424301       7.659E-08     33.35    <-- DIS
     687       1.92424311       1.92424296       7.571E-08     33.40    <-- DIS
     688       1.92424305       1.92424291       7.485E-08     33.44    <-- DIS
     689       1.92424300       1.92424286       7.400E-08     33.49    <-- DIS
     690       1.92424295       1.92424281       7.316E-08     33.54    <-- DIS
     691       1.92424290       1.92424276       7.233E-08     33.59    <-- DIS
     692       1.92424285       1.92424271       7.151E-08     33.64    <-- DIS
     693       1.92424280       1.92424266       7.070E-08     33.69    <-- DIS
     694       1.92424275       1.92424262       6.991E-08     33.74    <-- DIS
     695       1.92424270       1.92424257       6.912E-08     33.78    <-- DIS
     696       1.92424266       1.92424252       6.834E-08     33.83    <-- DIS
     697       1.92424261       1.92424248       6.757E-08     33.88    <-- DIS
     698       1.92424256       1.92424243       6.681E-08     33.93    <-- DIS
     699       1.92424252       1.92424239       6.605E-08     33.98    <-- DIS
     700       1.92424247       1.92424235       6.531E-08     34.03    <-- DIS
     701       1.92424243       1.92424230       6.458E-08     34.08    <-- DIS
     702       1.92424239       1.92424226       6.385E-08     34.12    <-- DIS
     703       1.92424234       1.92424222       6.314E-08     34.17    <-- DIS
     704       1.92424230       1.92424218       6.243E-08     34.22    <-- DIS
     705       1.92424226       1.92424214       6.174E-08     34.27    <-- DIS
     706       1.92424222       1.92424210       6.105E-08     34.32    <-- DIS
     707       1.92424218       1.92424206       6.037E-08     34.37    <-- DIS
     708       1.92424214       1.92424202       5.969E-08     34.42    <-- DIS
     709       1.92424210       1.92424198       5.903E-08     34.47    <-- DIS
     710       1.92424206       1.92424195       5.837E-08     34.51    <-- DIS
     711       1.92424202       1.92424191       5.772E-08     34.56    <-- DIS
     712       1.92424198       1.92424187       5.708E-08     34.61    <-- DIS
     713       1.92424195       1.92424184       5.645E-08     34.66    <-- DIS
     714       1.92424191       1.92424180       5.583E-08     34.71    <-- DIS
     715       1.92424187       1.92424177       5.521E-08     34.76    <-- DIS
     716       1.92424184       1.92424173       5.460E-08     34.81    <-- DIS
     717       1.92424180       1.92424170       5.400E-08     34.85    <-- DIS
     718       1.92424177       1.92424166       5.340E-08     34.90    <-- DIS
     719       1.92424173       1.92424163       5.281E-08     34.95    <-- DIS
     720       1.92424170       1.92424160       5.223E-08     35.00    <-- DIS
     721       1.92424167       1.92424157       5.166E-08     35.05    <-- DIS
     722       1.92424163       1.92424153       5.109E-08     35.10    <-- DIS
     723       1.92424160       1.92424150       5.053E-08     35.15    <-- DIS
     724       1.92424157       1.92424147       4.998E-08     35.20    <-- DIS
     725       1.92424154       1.92424144       4.943E-08     35.24    <-- DIS
     726       1.92424151       1.92424141       4.889E-08     35.29    <-- DIS
     727       1.92424148       1.92424138       4.836E-08     35.34    <-- DIS
     728       1.92424144       1.92424135       4.783E-08     35.39    <-- DIS
     729       1.92424142       1.92424132       4.731E-08     35.44    <-- DIS
     730       1.92424139       1.92424130       4.680E-08     35.49    <-- DIS
     731       1.92424136       1.92424127       4.629E-08     35.54    <-- DIS
     732       1.92424133       1.92424124       4.578E-08     35.58    <-- DIS
     733       1.92424130       1.92424121       4.529E-08     35.63    <-- DIS
     734       1.92424127       1.92424119       4.480E-08     35.68    <-- DIS
     735       1.92424124       1.92424116       4.431E-08     35.73    <-- DIS
     736       1.92424122       1.92424113       4.383E-08     35.78    <-- DIS
     737       1.92424119       1.92424111       4.336E-08     35.83    <-- DIS
     738       1.92424116       1.92424108       4.289E-08     35.88    <-- DIS
     739       1.92424114       1.92424106       4.243E-08     35.92    <-- DIS
     740       1.92424111       1.92424103       4.198E-08     35.97    <-- DIS
     741       1.92424109       1.92424101       4.152E-08     36.02    <-- DIS
     742       1.92424106       1.92424098       4.108E-08     36.07    <-- DIS
     743       1.92424104       1.92424096       4.064E-08     36.12    <-- DIS
     744       1.92424101       1.92424094       4.020E-08     36.17    <-- DIS
     745       1.92424099       1.92424091       3.977E-08     36.22    <-- DIS
     746       1.92424097       1.92424089       3.935E-08     36.26    <-- DIS
     747       1.92424094       1.92424087       3.893E-08     36.31    <-- DIS
     748       1.92424092       1.92424085       3.851E-08     36.36    <-- DIS
     749       1.92424090       1.92424083       3.810E-08     36.41    <-- DIS
     750       1.92424088       1.92424080       3.770E-08     36.46    <-- DIS
     751       1.92424086       1.92424078       3.730E-08     36.51    <-- DIS
[...]
        O_D=      0.0132816 O_OD=      0.0004689 O_TOT=      1.9379898 <-- SPRD
 Delta: O_D= -0.3295247E-04 O_OD=  0.1626303E-17 O_TOT= -0.3295247E-04 <-- DLTA
 ------------------------------------------------------------------------------
 Cycle:      7
  WF centre and spread    1  (  0.000000,  1.424437, 10.000000 )     0.96897624
  WF centre and spread    2  (  1.233598,  0.712218, 10.000000 )     0.96897627
  Sum of centres and spreads (  1.233598,  2.136655, 20.000000 )     1.93795251
 
      7    -0.379E-04     0.0052316455        1.9379518721      72.80  <-- CONV
        O_D=      0.0132437 O_OD=      0.0004689 O_TOT=      1.9379519 <-- SPRD
 Delta: O_D= -0.3789784E-04 O_OD= -0.3686287E-17 O_TOT= -0.3789784E-04 <-- DLTA
 ------------------------------------------------------------------------------
 Cycle:      8
  WF centre and spread    1  (  0.000000,  1.424437, 10.000000 )     0.96897272
  WF centre and spread    2  (  1.233598,  0.712218, 10.000000 )     0.96897276
  Sum of centres and spreads (  1.233598,  2.136655, 20.000000 )     1.93794547
 
      8    -0.703E-05     0.0032535662        1.9379448379      72.82  <-- CONV
        O_D=      0.0132367 O_OD=      0.0004689 O_TOT=      1.9379448 <-- SPRD
 Delta: O_D= -0.7034195E-05 O_OD=  0.8673617E-18 O_TOT= -0.7034195E-05 <-- DLTA
 ------------------------------------------------------------------------------
 Cycle:      9
  WF centre and spread    1  (  0.000000,  1.424437, 10.000000 )     0.96897233
  WF centre and spread    2  (  1.233598,  0.712218, 10.000000 )     0.96897237
  Sum of centres and spreads (  1.233598,  2.136655, 20.000000 )     1.93794470
 
      9    -0.776E-06     0.0011196502        1.9379440618      72.85  <-- CONV
        O_D=      0.0132359 O_OD=      0.0004689 O_TOT=      1.9379441 <-- SPRD
 Delta: O_D= -0.7760904E-06 O_OD=  0.1626303E-17 O_TOT= -0.7760904E-06 <-- DLTA
 ------------------------------------------------------------------------------
 Cycle:     10
  WF centre and spread    1  (  0.000000,  1.424437, 10.000000 )     0.96897227
  WF centre and spread    2  (  1.233598,  0.712218, 10.000000 )     0.96897231
  Sum of centres and spreads (  1.233598,  2.136655, 20.000000 )     1.93794458
 
     10    -0.120E-06     0.0004306655        1.9379439423      72.87  <-- CONV
        O_D=      0.0132358 O_OD=      0.0004689 O_TOT=      1.9379439 <-- SPRD
 Delta: O_D= -0.1195086E-06 O_OD=  0.3848918E-17 O_TOT= -0.1195086E-06 <-- DLTA
 ------------------------------------------------------------------------------
 Cycle:     11
  WF centre and spread    1  (  0.000000,  1.424437, 10.000000 )     0.96897224
  WF centre and spread    2  (  1.233598,  0.712218, 10.000000 )     0.96897228
  Sum of centres and spreads (  1.233598,  2.136655, 20.000000 )     1.93794452
 
     11    -0.628E-07     0.0002487112        1.9379438794      72.90  <-- CONV
        O_D=      0.0132357 O_OD=      0.0004689 O_TOT=      1.9379439 <-- SPRD
 Delta: O_D= -0.6281115E-07 O_OD= -0.2547875E-17 O_TOT= -0.6281115E-07 <-- DLTA
 ------------------------------------------------------------------------------
 Cycle:     12
  WF centre and spread    1  (  0.000000,  1.424437, 10.000000 )     0.96897222
  WF centre and spread    2  (  1.233598,  0.712218, 10.000000 )     0.96897226
  Sum of centres and spreads (  1.233598,  2.136655, 20.000000 )     1.93794448
 
     12    -0.322E-07     0.0001719766        1.9379438473      72.92  <-- CONV
        O_D=      0.0132357 O_OD=      0.0004689 O_TOT=      1.9379438 <-- SPRD
 Delta: O_D= -0.3218563E-07 O_OD=  0.5421011E-19 O_TOT= -0.3218563E-07 <-- DLTA
 ------------------------------------------------------------------------------
 Cycle:     13
  WF centre and spread    1  (  0.000000,  1.424437, 10.000000 )     0.96897222
  WF centre and spread    2  (  1.233598,  0.712218, 10.000000 )     0.96897225
  Sum of centres and spreads (  1.233598,  2.136655, 20.000000 )     1.93794447
 
     13    -0.143E-07     0.0001221227        1.9379438330      72.95  <-- CONV
        O_D=      0.0132357 O_OD=      0.0004689 O_TOT=      1.9379438 <-- SPRD
 Delta: O_D= -0.1425608E-07 O_OD= -0.9215718E-18 O_TOT= -0.1425608E-07 <-- DLTA
 ------------------------------------------------------------------------------
 Cycle:     14
  WF centre and spread    1  (  0.000000,  1.424437, 10.000000 )     0.96897221
  WF centre and spread    2  (  1.233598,  0.712218, 10.000000 )     0.96897225
  Sum of centres and spreads (  1.233598,  2.136655, 20.000000 )     1.93794447
 
     14    -0.446E-08     0.0000668912        1.9379438285      72.97  <-- CONV
        O_D=      0.0132357 O_OD=      0.0004689 O_TOT=      1.9379438 <-- SPRD
 Delta: O_D= -0.4456691E-08 O_OD=  0.5421011E-19 O_TOT= -0.4456691E-08 <-- DLTA
 ------------------------------------------------------------------------------
 Cycle:     15
  WF centre and spread    1  (  0.000000,  1.424437, 10.000000 )     0.96897221
  WF centre and spread    2  (  1.233598,  0.712218, 10.000000 )     0.96897225
  Sum of centres and spreads (  1.233598,  2.136655, 20.000000 )     1.93794446
 
     15    -0.287E-08     0.0000501783        1.9379438257      73.00  <-- CONV
        O_D=      0.0132357 O_OD=      0.0004689 O_TOT=      1.9379438 <-- SPRD
 Delta: O_D= -0.2871731E-08 O_OD= -0.2168404E-18 O_TOT= -0.2871731E-08 <-- DLTA
 ------------------------------------------------------------------------------
 Cycle:     16
  WF centre and spread    1  (  0.000000,  1.424437, 10.000000 )     0.96897221
  WF centre and spread    2  (  1.233598,  0.712218, 10.000000 )     0.96897225
  Sum of centres and spreads (  1.233598,  2.136655, 20.000000 )     1.93794446
 
     16    -0.131E-08     0.0000457511        1.9379438244      73.02  <-- CONV
        O_D=      0.0132357 O_OD=      0.0004689 O_TOT=      1.9379438 <-- SPRD
 Delta: O_D= -0.1314348E-08 O_OD=  0.7589415E-18 O_TOT= -0.1314348E-08 <-- DLTA
 ------------------------------------------------------------------------------
 Cycle:     17
  WF centre and spread    1  (  0.000000,  1.424437, 10.000000 )     0.96897221
  WF centre and spread    2  (  1.233598,  0.712218, 10.000000 )     0.96897225
  Sum of centres and spreads (  1.233598,  2.136655, 20.000000 )     1.93794446
 
     17    -0.765E-09     0.0000275468        1.9379438236      73.05  <-- CONV
        O_D=      0.0132357 O_OD=      0.0004689 O_TOT=      1.9379438 <-- SPRD
 Delta: O_D= -0.7649477E-09 O_OD=  0.4011548E-17 O_TOT= -0.7649477E-09 <-- DLTA
 ------------------------------------------------------------------------------
 Cycle:     18
  WF centre and spread    1  (  0.000000,  1.424437, 10.000000 )     0.96897221
  WF centre and spread    2  (  1.233598,  0.712218, 10.000000 )     0.96897225
  Sum of centres and spreads (  1.233598,  2.136655, 20.000000 )     1.93794446
 
     18    -0.622E-12     0.0000166753        1.9379438236      73.06  <-- CONV
        O_D=      0.0132357 O_OD=      0.0004689 O_TOT=      1.9379438 <-- SPRD
 Delta: O_D= -0.6218463E-12 O_OD= -0.7589415E-18 O_TOT= -0.6217249E-12 <-- DLTA
 ------------------------------------------------------------------------------
 Cycle:     19
  WF centre and spread    1  (  0.000000,  1.424437, 10.000000 )     0.96897221
  WF centre and spread    2  (  1.233598,  0.712218, 10.000000 )     0.96897225
  Sum of centres and spreads (  1.233598,  2.136655, 20.000000 )     1.93794446
 
     19    -0.485E-09     0.0000166655        1.9379438231      73.08  <-- CONV
        O_D=      0.0132357 O_OD=      0.0004689 O_TOT=      1.9379438 <-- SPRD
 Delta: O_D= -0.4854509E-09 O_OD= -0.3957338E-17 O_TOT= -0.4854510E-09 <-- DLTA
 ------------------------------------------------------------------------------
 Cycle:     20
  WF centre and spread    1  (  0.000000,  1.424437, 10.000000 )     0.96897221
  WF centre and spread    2  (  1.233598,  0.712218, 10.000000 )     0.96897225
  Sum of centres and spreads (  1.233598,  2.136655, 20.000000 )     1.93794446
 
     20    -0.100E-09     0.0000239531        1.9379438230      73.11  <-- CONV
        O_D=      0.0132357 O_OD=      0.0004689 O_TOT=      1.9379438 <-- SPRD
 Delta: O_D= -0.1004543E-09 O_OD=  0.5475221E-17 O_TOT= -0.1004543E-09 <-- DLTA
 ------------------------------------------------------------------------------
 Cycle:     21
  WF centre and spread    1  (  0.000000,  1.424437, 10.000000 )     0.96897221
  WF centre and spread    2  (  1.233598,  0.712218, 10.000000 )     0.96897225
  Sum of centres and spreads (  1.233598,  2.136655, 20.000000 )     1.93794446
 
     21    -0.202E-09     0.0000296431        1.9379438228      73.13  <-- CONV
        O_D=      0.0132357 O_OD=      0.0004689 O_TOT=      1.9379438 <-- SPRD
 Delta: O_D= -0.2016943E-09 O_OD= -0.2114194E-17 O_TOT= -0.2016942E-09 <-- DLTA
 ------------------------------------------------------------------------------
 Cycle:     22
  WF centre and spread    1  (  0.000000,  1.424437, 10.000000 )     0.96897221
  WF centre and spread    2  (  1.233598,  0.712218, 10.000000 )     0.96897225
  Sum of centres and spreads (  1.233598,  2.136655, 20.000000 )     1.93794446
 
     22    -0.412E-09     0.0000267604        1.9379438224      73.16  <-- CONV
        O_D=      0.0132357 O_OD=      0.0004689 O_TOT=      1.9379438 <-- SPRD
 Delta: O_D= -0.4118673E-09 O_OD=  0.1029992E-17 O_TOT= -0.4118672E-09 <-- DLTA
 ------------------------------------------------------------------------------
 Cycle:     23
  WF centre and spread    1  (  0.000000,  1.424437, 10.000000 )     0.96897221
  WF centre and spread    2  (  1.233598,  0.712218, 10.000000 )     0.96897225
  Sum of centres and spreads (  1.233598,  2.136655, 20.000000 )     1.93794446
 
     23    -0.143E-12     0.0000090362        1.9379438224      73.17  <-- CONV
        O_D=      0.0132357 O_OD=      0.0004689 O_TOT=      1.9379438 <-- SPRD
 Delta: O_D= -0.1425787E-12 O_OD= -0.8673617E-18 O_TOT= -0.1427747E-12 <-- DLTA
 ------------------------------------------------------------------------------
 Cycle:     24
  WF centre and spread    1  (  0.000000,  1.424437, 10.000000 )     0.96897221
  WF centre and spread    2  (  1.233598,  0.712218, 10.000000 )     0.96897225
  Sum of centres and spreads (  1.233598,  2.136655, 20.000000 )     1.93794446
 
     24    -0.274E-12     0.0000090308        1.9379438224      73.19  <-- CONV
        O_D=      0.0132357 O_OD=      0.0004689 O_TOT=      1.9379438 <-- SPRD
 Delta: O_D= -0.2736613E-12 O_OD=  0.2710505E-18 O_TOT= -0.2735590E-12 <-- DLTA
 ------------------------------------------------------------------------------
 Cycle:     25
  WF centre and spread    1  (  0.000000,  1.424437, 10.000000 )     0.96897221
  WF centre and spread    2  (  1.233598,  0.712218, 10.000000 )     0.96897225
  Sum of centres and spreads (  1.233598,  2.136655, 20.000000 )     1.93794446
 
     25    -0.404E-12     0.0000090196        1.9379438224      73.20  <-- CONV
        O_D=      0.0132357 O_OD=      0.0004689 O_TOT=      1.9379438 <-- SPRD
 Delta: O_D= -0.4038575E-12 O_OD= -0.1409463E-17 O_TOT= -0.4038991E-12 <-- DLTA
 ------------------------------------------------------------------------------
 Cycle:     26
  WF centre and spread    1  (  0.000000,  1.424437, 10.000000 )     0.96897221
  WF centre and spread    2  (  1.233598,  0.712218, 10.000000 )     0.96897225
  Sum of centres and spreads (  1.233598,  2.136655, 20.000000 )     1.93794446
 
     26    -0.108E-09     0.0000090027        1.9379438223      73.23  <-- CONV
        O_D=      0.0132357 O_OD=      0.0004689 O_TOT=      1.9379438 <-- SPRD
 Delta: O_D= -0.1081128E-09 O_OD= -0.2710505E-17 O_TOT= -0.1081129E-09 <-- DLTA
 ------------------------------------------------------------------------------
 Cycle:     27
  WF centre and spread    1  (  0.000000,  1.424437, 10.000000 )     0.96897221
  WF centre and spread    2  (  1.233598,  0.712218, 10.000000 )     0.96897225
  Sum of centres and spreads (  1.233598,  2.136655, 20.000000 )     1.93794446
 
     27    -0.110E-12     0.0000085928        1.9379438223      73.24  <-- CONV
        O_D=      0.0132357 O_OD=      0.0004689 O_TOT=      1.9379438 <-- SPRD
 Delta: O_D= -0.1104880E-12 O_OD=  0.4336809E-18 O_TOT= -0.1103562E-12 <-- DLTA
 ------------------------------------------------------------------------------
 Cycle:     28
  WF centre and spread    1  (  0.000000,  1.424437, 10.000000 )     0.96897221
  WF centre and spread    2  (  1.233598,  0.712218, 10.000000 )     0.96897225
  Sum of centres and spreads (  1.233598,  2.136655, 20.000000 )     1.93794446
 
     28    -0.119E-12     0.0000086008        1.9379438223      73.25  <-- CONV
        O_D=      0.0132357 O_OD=      0.0004689 O_TOT=      1.9379438 <-- SPRD
 Delta: O_D= -0.1192466E-12 O_OD=  0.1029992E-17 O_TOT= -0.1192380E-12 <-- DLTA
 ------------------------------------------------------------------------------
 Cycle:     29
  WF centre and spread    1  (  0.000000,  1.424437, 10.000000 )     0.96897221
  WF centre and spread    2  (  1.233598,  0.712218, 10.000000 )     0.96897225
  Sum of centres and spreads (  1.233598,  2.136655, 20.000000 )     1.93794446
 
     29    -0.238E-12     0.0000085890        1.9379438223      73.27  <-- CONV
        O_D=      0.0132357 O_OD=      0.0004689 O_TOT=      1.9379438 <-- SPRD
 Delta: O_D= -0.2375565E-12 O_OD=  0.7589415E-18 O_TOT= -0.2375877E-12 <-- DLTA
 ------------------------------------------------------------------------------
 Cycle:     30
  WF centre and spread    1  (  0.000000,  1.424437, 10.000000 )     0.96897221
  WF centre and spread    2  (  1.233598,  0.712218, 10.000000 )     0.96897225
  Sum of centres and spreads (  1.233598,  2.136655, 20.000000 )     1.93794446
 
     30    -0.421E-10     0.0000085655        1.9379438222      73.29  <-- CONV
        O_D=      0.0132357 O_OD=      0.0004689 O_TOT=      1.9379438 <-- SPRD
 Delta: O_D= -0.4212443E-10 O_OD=  0.2710505E-18 O_TOT= -0.4212453E-10 <-- DLTA
 ------------------------------------------------------------------------------
 Cycle:     31
  WF centre and spread    1  (  0.000000,  1.424437, 10.000000 )     0.96897221
  WF centre and spread    2  (  1.233598,  0.712218, 10.000000 )     0.96897225
  Sum of centres and spreads (  1.233598,  2.136655, 20.000000 )     1.93794446
 
     31    -0.298E-13     0.0000059516        1.9379438222      73.30  <-- CONV
        O_D=      0.0132357 O_OD=      0.0004689 O_TOT=      1.9379438 <-- SPRD
 Delta: O_D= -0.2975398E-13 O_OD=  0.1355253E-17 O_TOT= -0.2975398E-13 <-- DLTA
 ------------------------------------------------------------------------------
 Cycle:     32
  WF centre and spread    1  (  0.000000,  1.424437, 10.000000 )     0.96897221
  WF centre and spread    2  (  1.233598,  0.712218, 10.000000 )     0.96897225
  Sum of centres and spreads (  1.233598,  2.136655, 20.000000 )     1.93794446
 
     32    -0.868E-13     0.0000059576        1.9379438222      73.32  <-- CONV
        O_D=      0.0132357 O_OD=      0.0004689 O_TOT=      1.9379438 <-- SPRD
 Delta: O_D= -0.8694608E-13 O_OD=  0.0000000E+00 O_TOT= -0.8681944E-13 <-- DLTA
 ------------------------------------------------------------------------------
 Cycle:     33
  WF centre and spread    1  (  0.000000,  1.424437, 10.000000 )     0.96897221
  WF centre and spread    2  (  1.233598,  0.712218, 10.000000 )     0.96897225
  Sum of centres and spreads (  1.233598,  2.136655, 20.000000 )     1.93794446
 
     33    -0.144E-12     0.0000059562        1.9379438222      73.33  <-- CONV
        O_D=      0.0132357 O_OD=      0.0004689 O_TOT=      1.9379438 <-- SPRD
 Delta: O_D= -0.1440931E-12 O_OD= -0.2710505E-18 O_TOT= -0.1441069E-12 <-- DLTA
 ------------------------------------------------------------------------------
 Cycle:     34
  WF centre and spread    1  (  0.000000,  1.424437, 10.000000 )     0.96897221
  WF centre and spread    2  (  1.233598,  0.712218, 10.000000 )     0.96897225
  Sum of centres and spreads (  1.233598,  2.136655, 20.000000 )     1.93794446
 
     34    -0.571E-13     0.0000059473        1.9379438222      73.34  <-- CONV
        O_D=      0.0132357 O_OD=      0.0004689 O_TOT=      1.9379438 <-- SPRD
 Delta: O_D= -0.5699954E-13 O_OD=  0.5963112E-18 O_TOT= -0.5706546E-13 <-- DLTA
 ------------------------------------------------------------------------------
 Cycle:     35
  WF centre and spread    1  (  0.000000,  1.424437, 10.000000 )     0.96897221
  WF centre and spread    2  (  1.233598,  0.712218, 10.000000 )     0.96897225
  Sum of centres and spreads (  1.233598,  2.136655, 20.000000 )     1.93794446
 
     35    -0.114E-12     0.0000059398        1.9379438222      73.36  <-- CONV
        O_D=      0.0132357 O_OD=      0.0004689 O_TOT=      1.9379438 <-- SPRD
 Delta: O_D= -0.1136764E-12 O_OD=  0.2005774E-17 O_TOT= -0.1136868E-12 <-- DLTA
 ------------------------------------------------------------------------------
 Cycle:     36
  WF centre and spread    1  (  0.000000,  1.424437, 10.000000 )     0.96897221
  WF centre and spread    2  (  1.233598,  0.712218, 10.000000 )     0.96897225
  Sum of centres and spreads (  1.233598,  2.136655, 20.000000 )     1.93794446
 
     36    -0.169E-12     0.0000059250        1.9379438222      73.37  <-- CONV
        O_D=      0.0132357 O_OD=      0.0004689 O_TOT=      1.9379438 <-- SPRD
 Delta: O_D= -0.1691616E-12 O_OD= -0.1572093E-17 O_TOT= -0.1691980E-12 <-- DLTA
 ------------------------------------------------------------------------------

             <<<     Delta < 1.000E-10  over 10 iterations     >>>
             <<< Wannierisation convergence criteria satisfied >>>

 Final State
  WF centre and spread    1  (  0.000000,  1.424437, 10.000000 )     0.96897221
  WF centre and spread    2  (  1.233598,  0.712218, 10.000000 )     0.96897225
  Sum of centres and spreads (  1.233598,  2.136655, 20.000000 )     1.93794446
 
         Spreads (Ang^2)       Omega I      =     1.924239293
        ================       Omega D      =     0.013235662
                               Omega OD     =     0.000468867
    Final Spread (Ang^2)       Omega Total  =     1.937943822
 ------------------------------------------------------------------------------
 Time for wannierise            0.746 (sec)

 Writing checkpoint file graphene.chk... done

 *---------------------------------------------------------------------------*
 |                               PLOTTING                                    |
 *---------------------------------------------------------------------------*
 
 
 Calculating interpolated band-structure
 
 Time to calculate interpolated band structure       0.135 (sec)
 
      Wannier Function Num:    1       Maximum Im/Re Ratio =    0.000000
      Wannier Function Num:    2       Maximum Im/Re Ratio =    0.000000
  
 Time for plotting            487.177 (sec)
 Total Execution Time         571.491 (sec)

 *===========================================================================*
 |                             TIMING INFORMATION                            |
 *===========================================================================*
 |    Tag                                                Ncalls      Time (s)|
 |---------------------------------------------------------------------------|
 |kmesh: get                                        :         1         0.668|
 |overlap: allocate                                 :         1         0.000|
 |overlap: read                                     :         1        10.074|
 |dis: main                                         :         1        72.706|
 |wann: main                                        :         1         0.746|
 |plot: main                                        :         1       487.177|
 *---------------------------------------------------------------------------*
 
 All done: wannier90 exiting
