
     Program PWSCF v.7.0 starts on 25Jun2022 at 12:37: 4 

     This program is part of the open-source Quantum ESPRESSO suite
     for quantum simulation of materials; please cite
         "P. Giannozzi et al., J. Phys.:Condens. Matter 21 395502 (2009);
         "P. Giannozzi et al., J. Phys.:Condens. Matter 29 465901 (2017);
         "P. Giannozzi et al., J. Chem. Phys. 152 154105 (2020);
          URL http://www.quantum-espresso.org", 
     in publications or presentations arising from this work. More details at
     http://www.quantum-espresso.org/quote

     Parallel version (MPI & OpenMP), running on      28 processor cores
     Number of MPI processes:                28
     Threads/MPI process:                     1

     MPI processes distributed on     1 nodes
     K-points division:     npool     =       7
     R & G space division:  proc/nbgrp/npool/nimage =       4
     55212 MiB available memory on the printing compute node when the environment starts
 
     Waiting for input...
     Reading input from standard input

     Current dimensions of program PWSCF are:
     Max number of different atomic species (ntypx) = 10
     Max number of k-points (npk) =  40000
     Max angular momentum in pseudopotentials (lmaxx) =  4
     file C.pbe-n-kjpaw_psl.1.0.0.UPF: wavefunction(s)  2S 2P renormalized

     Subspace diagonalization in iterative solution of the eigenvalue problem:
     one sub-group per band group will be used
     scalapack distributed-memory algorithm (size of sub-group:  2*  2 procs)

 
     Parallelization info
     --------------------
     sticks:   dense  smooth     PW     G-vecs:    dense   smooth      PW
     Min         180     118     37                31568    17152    2875
     Max         181     119     38                31589    17183    2888
     Sum         721     475    151               126311    68693   11537
 
     Using Slab Decomposition
 


     bravais-lattice index     =            4
     lattice parameter (alat)  =       4.6623  a.u.
     unit-cell volume          =     711.4836 (a.u.)^3
     number of atoms/cell      =            2
     number of atomic types    =            1
     number of electrons       =         8.00
     number of Kohn-Sham states=            8
     kinetic-energy cutoff     =      80.0000  Ry
     charge density cutoff     =     480.0000  Ry
     scf convergence threshold =      1.0E-12
     mixing beta               =       0.7000
     number of iterations used =            8  plain     mixing
     energy convergence thresh.=      1.0E-08
     force convergence thresh. =      1.0E-07
     Exchange-correlation= SLA  PW   PBX  PBC
                           (   1   4   3   4   0   0   0)
     nstep                     =           50


     celldm(1)=   4.662327  celldm(2)=   0.000000  celldm(3)=   8.106365
     celldm(4)=   0.000000  celldm(5)=   0.000000  celldm(6)=   0.000000

     crystal axes: (cart. coord. in units of alat)
               a(1) = (   1.000000   0.000000   0.000000 )  
               a(2) = (  -0.500000   0.866025   0.000000 )  
               a(3) = (   0.000000   0.000000   8.106365 )  

     reciprocal axes: (cart. coord. in units 2 pi/alat)
               b(1) = (  1.000000  0.577350  0.000000 )  
               b(2) = (  0.000000  1.154701  0.000000 )  
               b(3) = (  0.000000  0.000000  0.123360 )  

Write cell and positions for Wanner90.x
begin unit_cell_cart
Bohr
        4.6623268   0.0000000   0.0000000
       -2.3311634   4.0376934   0.0000000
        0.0000000   0.0000000  37.7945225
end unit_cell_cart

begin atoms_cart
Bohr
        C          -0.0000000   2.6917956  18.8972612
        C           2.3311634   1.3458978  18.8972612
end atoms_cart

     PseudoPot. # 1 for C  read from file:
     ./pseudo/C.pbe-n-kjpaw_psl.1.0.0.UPF
     MD5 check sum: 6fec8efd722f5d988670a8dc528584a2
     Pseudo is Projector augmented-wave + core cor, Zval =  4.0
     Generated using "atomic" code by A. Dal Corso  v.5.1.2
     Shape of augmentation charge: PSQ
     Using radial grid of 1073 points,  4 beta functions with: 
                l(1) =   0
                l(2) =   0
                l(3) =   1
                l(4) =   1
     Q(r) pseudized with 0 coefficients 


     atomic species   valence    mass     pseudopotential
        C              4.00    12.01070     C ( 1.00)

     24 Sym. Ops., with inversion, found


                                    s                        frac. trans.

      isym =  1     identity                                     

 cryst.   s( 1) = (     1          0          0      )
                  (     0          1          0      )
                  (     0          0          1      )

 cart.    s( 1) = (  1.0000000  0.0000000  0.0000000 )
                  (  0.0000000  1.0000000  0.0000000 )
                  (  0.0000000  0.0000000  1.0000000 )


      isym =  2     180 deg rotation - cart. axis [0,0,1]        

 cryst.   s( 2) = (    -1          0          0      )
                  (     0         -1          0      )
                  (     0          0          1      )

 cart.    s( 2) = ( -1.0000000  0.0000000  0.0000000 )
                  (  0.0000000 -1.0000000  0.0000000 )
                  (  0.0000000  0.0000000  1.0000000 )


      isym =  3     180 deg rotation - cart. axis [0,1,0]        

 cryst.   s( 3) = (    -1          0          0      )
                  (     1          1          0      )
                  (     0          0         -1      )

 cart.    s( 3) = ( -1.0000000  0.0000000  0.0000000 )
                  (  0.0000000  1.0000000  0.0000000 )
                  (  0.0000000  0.0000000 -1.0000000 )


      isym =  4     180 deg rotation - cart. axis [1,0,0]        

 cryst.   s( 4) = (     1          0          0      )
                  (    -1         -1          0      )
                  (     0          0         -1      )

 cart.    s( 4) = (  1.0000000  0.0000000  0.0000000 )
                  (  0.0000000 -1.0000000  0.0000000 )
                  (  0.0000000  0.0000000 -1.0000000 )


      isym =  5      60 deg rotation - cryst. axis [0,0,1]       

 cryst.   s( 5) = (     1          1          0      )
                  (    -1          0          0      )
                  (     0          0          1      )

 cart.    s( 5) = (  0.5000000 -0.8660254  0.0000000 )
                  (  0.8660254  0.5000000  0.0000000 )
                  (  0.0000000  0.0000000  1.0000000 )


      isym =  6      60 deg rotation - cryst. axis [0,0,-1]      

 cryst.   s( 6) = (     0         -1          0      )
                  (     1          1          0      )
                  (     0          0          1      )

 cart.    s( 6) = (  0.5000000  0.8660254  0.0000000 )
                  ( -0.8660254  0.5000000  0.0000000 )
                  (  0.0000000  0.0000000  1.0000000 )


      isym =  7     120 deg rotation - cryst. axis [0,0,1]       

 cryst.   s( 7) = (     0          1          0      )
                  (    -1         -1          0      )
                  (     0          0          1      )

 cart.    s( 7) = ( -0.5000000 -0.8660254  0.0000000 )
                  (  0.8660254 -0.5000000  0.0000000 )
                  (  0.0000000  0.0000000  1.0000000 )


      isym =  8     120 deg rotation - cryst. axis [0,0,-1]      

 cryst.   s( 8) = (    -1         -1          0      )
                  (     1          0          0      )
                  (     0          0          1      )

 cart.    s( 8) = ( -0.5000000  0.8660254  0.0000000 )
                  ( -0.8660254 -0.5000000  0.0000000 )
                  (  0.0000000  0.0000000  1.0000000 )


      isym =  9     180 deg rotation - cryst. axis [1,-1,0]      

 cryst.   s( 9) = (     0         -1          0      )
                  (    -1          0          0      )
                  (     0          0         -1      )

 cart.    s( 9) = (  0.5000000 -0.8660254  0.0000000 )
                  ( -0.8660254 -0.5000000  0.0000000 )
                  (  0.0000000  0.0000000 -1.0000000 )


      isym = 10     180 deg rotation - cryst. axis [2,1,0]       

 cryst.   s(10) = (     1          1          0      )
                  (     0         -1          0      )
                  (     0          0         -1      )

 cart.    s(10) = (  0.5000000  0.8660254  0.0000000 )
                  (  0.8660254 -0.5000000  0.0000000 )
                  (  0.0000000  0.0000000 -1.0000000 )


      isym = 11     180 deg rotation - cryst. axis [0,1,0]       

 cryst.   s(11) = (    -1         -1          0      )
                  (     0          1          0      )
                  (     0          0         -1      )

 cart.    s(11) = ( -0.5000000 -0.8660254  0.0000000 )
                  ( -0.8660254  0.5000000  0.0000000 )
                  (  0.0000000  0.0000000 -1.0000000 )


      isym = 12     180 deg rotation - cryst. axis [1,1,0]       

 cryst.   s(12) = (     0          1          0      )
                  (     1          0          0      )
                  (     0          0         -1      )

 cart.    s(12) = ( -0.5000000  0.8660254  0.0000000 )
                  (  0.8660254  0.5000000  0.0000000 )
                  (  0.0000000  0.0000000 -1.0000000 )


      isym = 13     inversion                                    

 cryst.   s(13) = (    -1          0          0      )
                  (     0         -1          0      )
                  (     0          0         -1      )

 cart.    s(13) = ( -1.0000000  0.0000000  0.0000000 )
                  (  0.0000000 -1.0000000  0.0000000 )
                  (  0.0000000  0.0000000 -1.0000000 )


      isym = 14     inv. 180 deg rotation - cart. axis [0,0,1]   

 cryst.   s(14) = (     1          0          0      )
                  (     0          1          0      )
                  (     0          0         -1      )

 cart.    s(14) = (  1.0000000  0.0000000  0.0000000 )
                  (  0.0000000  1.0000000  0.0000000 )
                  (  0.0000000  0.0000000 -1.0000000 )


      isym = 15     inv. 180 deg rotation - cart. axis [0,1,0]   

 cryst.   s(15) = (     1          0          0      )
                  (    -1         -1          0      )
                  (     0          0          1      )

 cart.    s(15) = (  1.0000000  0.0000000  0.0000000 )
                  (  0.0000000 -1.0000000  0.0000000 )
                  (  0.0000000  0.0000000  1.0000000 )


      isym = 16     inv. 180 deg rotation - cart. axis [1,0,0]   

 cryst.   s(16) = (    -1          0          0      )
                  (     1          1          0      )
                  (     0          0          1      )

 cart.    s(16) = ( -1.0000000  0.0000000  0.0000000 )
                  (  0.0000000  1.0000000  0.0000000 )
                  (  0.0000000  0.0000000  1.0000000 )


      isym = 17     inv.  60 deg rotation - cryst. axis [0,0,1]  

 cryst.   s(17) = (    -1         -1          0      )
                  (     1          0          0      )
                  (     0          0         -1      )

 cart.    s(17) = ( -0.5000000  0.8660254  0.0000000 )
                  ( -0.8660254 -0.5000000  0.0000000 )
                  (  0.0000000  0.0000000 -1.0000000 )


      isym = 18     inv.  60 deg rotation - cryst. axis [0,0,-1] 

 cryst.   s(18) = (     0          1          0      )
                  (    -1         -1          0      )
                  (     0          0         -1      )

 cart.    s(18) = ( -0.5000000 -0.8660254  0.0000000 )
                  (  0.8660254 -0.5000000  0.0000000 )
                  (  0.0000000  0.0000000 -1.0000000 )


      isym = 19     inv. 120 deg rotation - cryst. axis [0,0,1]  

 cryst.   s(19) = (     0         -1          0      )
                  (     1          1          0      )
                  (     0          0         -1      )

 cart.    s(19) = (  0.5000000  0.8660254  0.0000000 )
                  ( -0.8660254  0.5000000  0.0000000 )
                  (  0.0000000  0.0000000 -1.0000000 )


      isym = 20     inv. 120 deg rotation - cryst. axis [0,0,-1] 

 cryst.   s(20) = (     1          1          0      )
                  (    -1          0          0      )
                  (     0          0         -1      )

 cart.    s(20) = (  0.5000000 -0.8660254  0.0000000 )
                  (  0.8660254  0.5000000  0.0000000 )
                  (  0.0000000  0.0000000 -1.0000000 )


      isym = 21     inv. 180 deg rotation - cryst. axis [1,-1,0] 

 cryst.   s(21) = (     0          1          0      )
                  (     1          0          0      )
                  (     0          0          1      )

 cart.    s(21) = ( -0.5000000  0.8660254  0.0000000 )
                  (  0.8660254  0.5000000  0.0000000 )
                  (  0.0000000  0.0000000  1.0000000 )


      isym = 22     inv. 180 deg rotation - cryst. axis [2,1,0]  

 cryst.   s(22) = (    -1         -1          0      )
                  (     0          1          0      )
                  (     0          0          1      )

 cart.    s(22) = ( -0.5000000 -0.8660254  0.0000000 )
                  ( -0.8660254  0.5000000  0.0000000 )
                  (  0.0000000  0.0000000  1.0000000 )


      isym = 23     inv. 180 deg rotation - cryst. axis [0,1,0]  

 cryst.   s(23) = (     1          1          0      )
                  (     0         -1          0      )
                  (     0          0          1      )

 cart.    s(23) = (  0.5000000  0.8660254  0.0000000 )
                  (  0.8660254 -0.5000000  0.0000000 )
                  (  0.0000000  0.0000000  1.0000000 )


      isym = 24     inv. 180 deg rotation - cryst. axis [1,1,0]  

 cryst.   s(24) = (     0         -1          0      )
                  (    -1          0          0      )
                  (     0          0          1      )

 cart.    s(24) = (  0.5000000 -0.8660254  0.0000000 )
                  ( -0.8660254 -0.5000000  0.0000000 )
                  (  0.0000000  0.0000000  1.0000000 )


     point group D_6h(6/mmm)
     there are 12 classes
     the character table:

       E     2C6   2C3   C2    3C2'  3C2'' i     2S3   2S6   s_h   3s_d  3s_v 
A_1g   1.00  1.00  1.00  1.00  1.00  1.00  1.00  1.00  1.00  1.00  1.00  1.00
A_2g   1.00  1.00  1.00  1.00 -1.00 -1.00  1.00  1.00  1.00  1.00 -1.00 -1.00
B_1g   1.00 -1.00  1.00 -1.00  1.00 -1.00  1.00 -1.00  1.00 -1.00  1.00 -1.00
B_2g   1.00 -1.00  1.00 -1.00 -1.00  1.00  1.00 -1.00  1.00 -1.00 -1.00  1.00
E_1g   2.00  1.00 -1.00 -2.00  0.00  0.00  2.00  1.00 -1.00 -2.00  0.00  0.00
E_2g   2.00 -1.00 -1.00  2.00  0.00  0.00  2.00 -1.00 -1.00  2.00  0.00  0.00
A_1u   1.00  1.00  1.00  1.00  1.00  1.00 -1.00 -1.00 -1.00 -1.00 -1.00 -1.00
A_2u   1.00  1.00  1.00  1.00 -1.00 -1.00 -1.00 -1.00 -1.00 -1.00  1.00  1.00
B_1u   1.00 -1.00  1.00 -1.00  1.00 -1.00 -1.00  1.00 -1.00  1.00 -1.00  1.00
B_2u   1.00 -1.00  1.00 -1.00 -1.00  1.00 -1.00  1.00 -1.00  1.00  1.00 -1.00
E_1u   2.00  1.00 -1.00 -2.00  0.00  0.00 -2.00 -1.00  1.00  2.00  0.00  0.00
E_2u   2.00 -1.00 -1.00  2.00  0.00  0.00 -2.00  1.00  1.00 -2.00  0.00  0.00

     the symmetry operations in each class and the name of the first element:

     E        1
          identity                                               
     2C6      5    6
           60 deg rotation - cryst. axis [0,0,1]                 
     2C3      7    8
          120 deg rotation - cryst. axis [0,0,1]                 
     C2       2
          180 deg rotation - cart. axis [0,0,1]                  
     3C2'     4   12   11
          180 deg rotation - cart. axis [1,0,0]                  
     3C2''    3    9   10
          180 deg rotation - cart. axis [0,1,0]                  
     i       13
          inversion                                              
     2S3     17   18
          inv.  60 deg rotation - cryst. axis [0,0,1]            
     2S6     19   20
          inv. 120 deg rotation - cryst. axis [0,0,1]            
     s_h     14
          inv. 180 deg rotation - cart. axis [0,0,1]             
     3s_d    16   24   23
          inv. 180 deg rotation - cart. axis [1,0,0]             
     3s_v    15   21   22
          inv. 180 deg rotation - cart. axis [0,1,0]             

   Cartesian axes

     site n.     atom                  positions (alat units)
         1           C   tau(   1) = (  -0.0000000   0.5773503   4.0531825  )
         2           C   tau(   2) = (   0.5000000   0.2886751   4.0531825  )

   Crystallographic axes

     site n.     atom                  positions (cryst. coord.)
         1           C   tau(   1) = (  0.3333333  0.6666667  0.5000000  )
         2           C   tau(   2) = (  0.6666667  0.3333333  0.5000000  )

     number of k points=   127  Methfessel-Paxton smearing, width (Ry)=  0.0100
                       cart. coord. in units 2pi/alat
        k(    1) = (   0.0000000   0.0000000   0.0000000), wk =   0.0015432
        k(    2) = (   0.0000000   0.0320750   0.0000000), wk =   0.0092593
        k(    3) = (   0.0000000   0.0641500   0.0000000), wk =   0.0092593
        k(    4) = (   0.0000000   0.0962250   0.0000000), wk =   0.0092593
        k(    5) = (   0.0000000   0.1283001   0.0000000), wk =   0.0092593
        k(    6) = (   0.0000000   0.1603751   0.0000000), wk =   0.0092593
        k(    7) = (   0.0000000   0.1924501   0.0000000), wk =   0.0092593
        k(    8) = (   0.0000000   0.2245251   0.0000000), wk =   0.0092593
        k(    9) = (   0.0000000   0.2566001   0.0000000), wk =   0.0092593
        k(   10) = (   0.0000000   0.2886751   0.0000000), wk =   0.0092593
        k(   11) = (   0.0000000   0.3207501   0.0000000), wk =   0.0092593
        k(   12) = (   0.0000000   0.3528252   0.0000000), wk =   0.0092593
        k(   13) = (   0.0000000   0.3849002   0.0000000), wk =   0.0092593
        k(   14) = (   0.0000000   0.4169752   0.0000000), wk =   0.0092593
        k(   15) = (   0.0000000   0.4490502   0.0000000), wk =   0.0092593
        k(   16) = (   0.0000000   0.4811252   0.0000000), wk =   0.0092593
        k(   17) = (   0.0000000   0.5132002   0.0000000), wk =   0.0092593
        k(   18) = (   0.0000000   0.5452753   0.0000000), wk =   0.0092593
        k(   19) = (   0.0000000  -0.5773503   0.0000000), wk =   0.0046296
        k(   20) = (   0.0277778   0.0481125   0.0000000), wk =   0.0092593
        k(   21) = (   0.0277778   0.0801875   0.0000000), wk =   0.0185185
        k(   22) = (   0.0277778   0.1122626   0.0000000), wk =   0.0185185
        k(   23) = (   0.0277778   0.1443376   0.0000000), wk =   0.0185185
        k(   24) = (   0.0277778   0.1764126   0.0000000), wk =   0.0185185
        k(   25) = (   0.0277778   0.2084876   0.0000000), wk =   0.0185185
        k(   26) = (   0.0277778   0.2405626   0.0000000), wk =   0.0185185
        k(   27) = (   0.0277778   0.2726376   0.0000000), wk =   0.0185185
        k(   28) = (   0.0277778   0.3047126   0.0000000), wk =   0.0185185
        k(   29) = (   0.0277778   0.3367877   0.0000000), wk =   0.0185185
        k(   30) = (   0.0277778   0.3688627   0.0000000), wk =   0.0185185
        k(   31) = (   0.0277778   0.4009377   0.0000000), wk =   0.0185185
        k(   32) = (   0.0277778   0.4330127   0.0000000), wk =   0.0185185
        k(   33) = (   0.0277778   0.4650877   0.0000000), wk =   0.0185185
        k(   34) = (   0.0277778   0.4971627   0.0000000), wk =   0.0185185
        k(   35) = (   0.0277778   0.5292377   0.0000000), wk =   0.0185185
        k(   36) = (   0.0277778   0.5613128   0.0000000), wk =   0.0185185
        k(   37) = (   0.0555556   0.0962250   0.0000000), wk =   0.0092593
        k(   38) = (   0.0555556   0.1283001   0.0000000), wk =   0.0185185
        k(   39) = (   0.0555556   0.1603751   0.0000000), wk =   0.0185185
        k(   40) = (   0.0555556   0.1924501   0.0000000), wk =   0.0185185
        k(   41) = (   0.0555556   0.2245251   0.0000000), wk =   0.0185185
        k(   42) = (   0.0555556   0.2566001   0.0000000), wk =   0.0185185
        k(   43) = (   0.0555556   0.2886751   0.0000000), wk =   0.0185185
        k(   44) = (   0.0555556   0.3207501   0.0000000), wk =   0.0185185
        k(   45) = (   0.0555556   0.3528252   0.0000000), wk =   0.0185185
        k(   46) = (   0.0555556   0.3849002   0.0000000), wk =   0.0185185
        k(   47) = (   0.0555556   0.4169752   0.0000000), wk =   0.0185185
        k(   48) = (   0.0555556   0.4490502   0.0000000), wk =   0.0185185
        k(   49) = (   0.0555556   0.4811252   0.0000000), wk =   0.0185185
        k(   50) = (   0.0555556   0.5132002   0.0000000), wk =   0.0185185
        k(   51) = (   0.0555556   0.5452753   0.0000000), wk =   0.0185185
        k(   52) = (   0.0555556   0.5773503   0.0000000), wk =   0.0092593
        k(   53) = (   0.0833333   0.1443376   0.0000000), wk =   0.0092593
        k(   54) = (   0.0833333   0.1764126   0.0000000), wk =   0.0185185
        k(   55) = (   0.0833333   0.2084876   0.0000000), wk =   0.0185185
        k(   56) = (   0.0833333   0.2405626   0.0000000), wk =   0.0185185
        k(   57) = (   0.0833333   0.2726376   0.0000000), wk =   0.0185185
        k(   58) = (   0.0833333   0.3047126   0.0000000), wk =   0.0185185
        k(   59) = (   0.0833333   0.3367877   0.0000000), wk =   0.0185185
        k(   60) = (   0.0833333   0.3688627   0.0000000), wk =   0.0185185
        k(   61) = (   0.0833333   0.4009377   0.0000000), wk =   0.0185185
        k(   62) = (   0.0833333   0.4330127   0.0000000), wk =   0.0185185
        k(   63) = (   0.0833333   0.4650877   0.0000000), wk =   0.0185185
        k(   64) = (   0.0833333   0.4971627   0.0000000), wk =   0.0185185
        k(   65) = (   0.0833333   0.5292377   0.0000000), wk =   0.0185185
        k(   66) = (   0.0833333   0.5613128   0.0000000), wk =   0.0185185
        k(   67) = (   0.1111111   0.1924501   0.0000000), wk =   0.0092593
        k(   68) = (   0.1111111   0.2245251   0.0000000), wk =   0.0185185
        k(   69) = (   0.1111111   0.2566001   0.0000000), wk =   0.0185185
        k(   70) = (   0.1111111   0.2886751   0.0000000), wk =   0.0185185
        k(   71) = (   0.1111111   0.3207501   0.0000000), wk =   0.0185185
        k(   72) = (   0.1111111   0.3528252   0.0000000), wk =   0.0185185
        k(   73) = (   0.1111111   0.3849002   0.0000000), wk =   0.0185185
        k(   74) = (   0.1111111   0.4169752   0.0000000), wk =   0.0185185
        k(   75) = (   0.1111111   0.4490502   0.0000000), wk =   0.0185185
        k(   76) = (   0.1111111   0.4811252   0.0000000), wk =   0.0185185
        k(   77) = (   0.1111111   0.5132002   0.0000000), wk =   0.0185185
        k(   78) = (   0.1111111   0.5452753   0.0000000), wk =   0.0185185
        k(   79) = (   0.1111111   0.5773503   0.0000000), wk =   0.0092593
        k(   80) = (   0.1388889   0.2405626   0.0000000), wk =   0.0092593
        k(   81) = (   0.1388889   0.2726376   0.0000000), wk =   0.0185185
        k(   82) = (   0.1388889   0.3047126   0.0000000), wk =   0.0185185
        k(   83) = (   0.1388889   0.3367877   0.0000000), wk =   0.0185185
        k(   84) = (   0.1388889   0.3688627   0.0000000), wk =   0.0185185
        k(   85) = (   0.1388889   0.4009377   0.0000000), wk =   0.0185185
        k(   86) = (   0.1388889   0.4330127   0.0000000), wk =   0.0185185
        k(   87) = (   0.1388889   0.4650877   0.0000000), wk =   0.0185185
        k(   88) = (   0.1388889   0.4971627   0.0000000), wk =   0.0185185
        k(   89) = (   0.1388889   0.5292377   0.0000000), wk =   0.0185185
        k(   90) = (   0.1388889   0.5613128   0.0000000), wk =   0.0185185
        k(   91) = (   0.1666667   0.2886751   0.0000000), wk =   0.0092593
        k(   92) = (   0.1666667   0.3207501   0.0000000), wk =   0.0185185
        k(   93) = (   0.1666667   0.3528252   0.0000000), wk =   0.0185185
        k(   94) = (   0.1666667   0.3849002   0.0000000), wk =   0.0185185
        k(   95) = (   0.1666667   0.4169752   0.0000000), wk =   0.0185185
        k(   96) = (   0.1666667   0.4490502   0.0000000), wk =   0.0185185
        k(   97) = (   0.1666667   0.4811252   0.0000000), wk =   0.0185185
        k(   98) = (   0.1666667   0.5132002   0.0000000), wk =   0.0185185
        k(   99) = (   0.1666667   0.5452753   0.0000000), wk =   0.0185185
        k(  100) = (   0.1666667   0.5773503   0.0000000), wk =   0.0092593
        k(  101) = (   0.1944444   0.3367877   0.0000000), wk =   0.0092593
        k(  102) = (   0.1944444   0.3688627   0.0000000), wk =   0.0185185
        k(  103) = (   0.1944444   0.4009377   0.0000000), wk =   0.0185185
        k(  104) = (   0.1944444   0.4330127   0.0000000), wk =   0.0185185
        k(  105) = (   0.1944444   0.4650877   0.0000000), wk =   0.0185185
        k(  106) = (   0.1944444   0.4971627   0.0000000), wk =   0.0185185
        k(  107) = (   0.1944444   0.5292377   0.0000000), wk =   0.0185185
        k(  108) = (   0.1944444   0.5613128   0.0000000), wk =   0.0185185
        k(  109) = (   0.2222222   0.3849002   0.0000000), wk =   0.0092593
        k(  110) = (   0.2222222   0.4169752   0.0000000), wk =   0.0185185
        k(  111) = (   0.2222222   0.4490502   0.0000000), wk =   0.0185185
        k(  112) = (   0.2222222   0.4811252   0.0000000), wk =   0.0185185
        k(  113) = (   0.2222222   0.5132002   0.0000000), wk =   0.0185185
        k(  114) = (   0.2222222   0.5452753   0.0000000), wk =   0.0185185
        k(  115) = (   0.2222222   0.5773503   0.0000000), wk =   0.0092593
        k(  116) = (   0.2500000   0.4330127   0.0000000), wk =   0.0092593
        k(  117) = (   0.2500000   0.4650877   0.0000000), wk =   0.0185185
        k(  118) = (   0.2500000   0.4971627   0.0000000), wk =   0.0185185
        k(  119) = (   0.2500000   0.5292377   0.0000000), wk =   0.0185185
        k(  120) = (   0.2500000   0.5613128   0.0000000), wk =   0.0185185
        k(  121) = (   0.2777778   0.4811252   0.0000000), wk =   0.0092593
        k(  122) = (   0.2777778   0.5132002   0.0000000), wk =   0.0185185
        k(  123) = (   0.2777778   0.5452753   0.0000000), wk =   0.0185185
        k(  124) = (   0.2777778   0.5773503   0.0000000), wk =   0.0092593
        k(  125) = (   0.3055556   0.5292377   0.0000000), wk =   0.0092593
        k(  126) = (   0.3055556   0.5613128   0.0000000), wk =   0.0185185
        k(  127) = (   0.3333333   0.5773503   0.0000000), wk =   0.0030864

                       cryst. coord.
        k(    1) = (   0.0000000   0.0000000   0.0000000), wk =   0.0015432
        k(    2) = (   0.0000000   0.0277778   0.0000000), wk =   0.0092593
        k(    3) = (   0.0000000   0.0555556   0.0000000), wk =   0.0092593
        k(    4) = (   0.0000000   0.0833333   0.0000000), wk =   0.0092593
        k(    5) = (   0.0000000   0.1111111   0.0000000), wk =   0.0092593
        k(    6) = (   0.0000000   0.1388889   0.0000000), wk =   0.0092593
        k(    7) = (   0.0000000   0.1666667   0.0000000), wk =   0.0092593
        k(    8) = (   0.0000000   0.1944444   0.0000000), wk =   0.0092593
        k(    9) = (   0.0000000   0.2222222   0.0000000), wk =   0.0092593
        k(   10) = (   0.0000000   0.2500000   0.0000000), wk =   0.0092593
        k(   11) = (   0.0000000   0.2777778   0.0000000), wk =   0.0092593
        k(   12) = (   0.0000000   0.3055556   0.0000000), wk =   0.0092593
        k(   13) = (   0.0000000   0.3333333   0.0000000), wk =   0.0092593
        k(   14) = (   0.0000000   0.3611111   0.0000000), wk =   0.0092593
        k(   15) = (   0.0000000   0.3888889   0.0000000), wk =   0.0092593
        k(   16) = (   0.0000000   0.4166667   0.0000000), wk =   0.0092593
        k(   17) = (   0.0000000   0.4444444   0.0000000), wk =   0.0092593
        k(   18) = (   0.0000000   0.4722222   0.0000000), wk =   0.0092593
        k(   19) = (   0.0000000  -0.5000000   0.0000000), wk =   0.0046296
        k(   20) = (   0.0277778   0.0277778   0.0000000), wk =   0.0092593
        k(   21) = (   0.0277778   0.0555556   0.0000000), wk =   0.0185185
        k(   22) = (   0.0277778   0.0833333   0.0000000), wk =   0.0185185
        k(   23) = (   0.0277778   0.1111111   0.0000000), wk =   0.0185185
        k(   24) = (   0.0277778   0.1388889   0.0000000), wk =   0.0185185
        k(   25) = (   0.0277778   0.1666667   0.0000000), wk =   0.0185185
        k(   26) = (   0.0277778   0.1944444   0.0000000), wk =   0.0185185
        k(   27) = (   0.0277778   0.2222222   0.0000000), wk =   0.0185185
        k(   28) = (   0.0277778   0.2500000   0.0000000), wk =   0.0185185
        k(   29) = (   0.0277778   0.2777778   0.0000000), wk =   0.0185185
        k(   30) = (   0.0277778   0.3055556   0.0000000), wk =   0.0185185
        k(   31) = (   0.0277778   0.3333333   0.0000000), wk =   0.0185185
        k(   32) = (   0.0277778   0.3611111   0.0000000), wk =   0.0185185
        k(   33) = (   0.0277778   0.3888889   0.0000000), wk =   0.0185185
        k(   34) = (   0.0277778   0.4166667   0.0000000), wk =   0.0185185
        k(   35) = (   0.0277778   0.4444444   0.0000000), wk =   0.0185185
        k(   36) = (   0.0277778   0.4722222   0.0000000), wk =   0.0185185
        k(   37) = (   0.0555556   0.0555556   0.0000000), wk =   0.0092593
        k(   38) = (   0.0555556   0.0833333   0.0000000), wk =   0.0185185
        k(   39) = (   0.0555556   0.1111111   0.0000000), wk =   0.0185185
        k(   40) = (   0.0555556   0.1388889   0.0000000), wk =   0.0185185
        k(   41) = (   0.0555556   0.1666667   0.0000000), wk =   0.0185185
        k(   42) = (   0.0555556   0.1944444   0.0000000), wk =   0.0185185
        k(   43) = (   0.0555556   0.2222222   0.0000000), wk =   0.0185185
        k(   44) = (   0.0555556   0.2500000   0.0000000), wk =   0.0185185
        k(   45) = (   0.0555556   0.2777778   0.0000000), wk =   0.0185185
        k(   46) = (   0.0555556   0.3055556   0.0000000), wk =   0.0185185
        k(   47) = (   0.0555556   0.3333333   0.0000000), wk =   0.0185185
        k(   48) = (   0.0555556   0.3611111   0.0000000), wk =   0.0185185
        k(   49) = (   0.0555556   0.3888889   0.0000000), wk =   0.0185185
        k(   50) = (   0.0555556   0.4166667   0.0000000), wk =   0.0185185
        k(   51) = (   0.0555556   0.4444444   0.0000000), wk =   0.0185185
        k(   52) = (   0.0555556   0.4722222   0.0000000), wk =   0.0092593
        k(   53) = (   0.0833333   0.0833333   0.0000000), wk =   0.0092593
        k(   54) = (   0.0833333   0.1111111   0.0000000), wk =   0.0185185
        k(   55) = (   0.0833333   0.1388889   0.0000000), wk =   0.0185185
        k(   56) = (   0.0833333   0.1666667   0.0000000), wk =   0.0185185
        k(   57) = (   0.0833333   0.1944444   0.0000000), wk =   0.0185185
        k(   58) = (   0.0833333   0.2222222   0.0000000), wk =   0.0185185
        k(   59) = (   0.0833333   0.2500000   0.0000000), wk =   0.0185185
        k(   60) = (   0.0833333   0.2777778   0.0000000), wk =   0.0185185
        k(   61) = (   0.0833333   0.3055556   0.0000000), wk =   0.0185185
        k(   62) = (   0.0833333   0.3333333   0.0000000), wk =   0.0185185
        k(   63) = (   0.0833333   0.3611111   0.0000000), wk =   0.0185185
        k(   64) = (   0.0833333   0.3888889   0.0000000), wk =   0.0185185
        k(   65) = (   0.0833333   0.4166667   0.0000000), wk =   0.0185185
        k(   66) = (   0.0833333   0.4444444   0.0000000), wk =   0.0185185
        k(   67) = (   0.1111111   0.1111111   0.0000000), wk =   0.0092593
        k(   68) = (   0.1111111   0.1388889   0.0000000), wk =   0.0185185
        k(   69) = (   0.1111111   0.1666667   0.0000000), wk =   0.0185185
        k(   70) = (   0.1111111   0.1944444   0.0000000), wk =   0.0185185
        k(   71) = (   0.1111111   0.2222222   0.0000000), wk =   0.0185185
        k(   72) = (   0.1111111   0.2500000   0.0000000), wk =   0.0185185
        k(   73) = (   0.1111111   0.2777778   0.0000000), wk =   0.0185185
        k(   74) = (   0.1111111   0.3055556   0.0000000), wk =   0.0185185
        k(   75) = (   0.1111111   0.3333333   0.0000000), wk =   0.0185185
        k(   76) = (   0.1111111   0.3611111   0.0000000), wk =   0.0185185
        k(   77) = (   0.1111111   0.3888889   0.0000000), wk =   0.0185185
        k(   78) = (   0.1111111   0.4166667   0.0000000), wk =   0.0185185
        k(   79) = (   0.1111111   0.4444444   0.0000000), wk =   0.0092593
        k(   80) = (   0.1388889   0.1388889   0.0000000), wk =   0.0092593
        k(   81) = (   0.1388889   0.1666667   0.0000000), wk =   0.0185185
        k(   82) = (   0.1388889   0.1944444   0.0000000), wk =   0.0185185
        k(   83) = (   0.1388889   0.2222222   0.0000000), wk =   0.0185185
        k(   84) = (   0.1388889   0.2500000   0.0000000), wk =   0.0185185
        k(   85) = (   0.1388889   0.2777778   0.0000000), wk =   0.0185185
        k(   86) = (   0.1388889   0.3055556   0.0000000), wk =   0.0185185
        k(   87) = (   0.1388889   0.3333333   0.0000000), wk =   0.0185185
        k(   88) = (   0.1388889   0.3611111   0.0000000), wk =   0.0185185
        k(   89) = (   0.1388889   0.3888889   0.0000000), wk =   0.0185185
        k(   90) = (   0.1388889   0.4166667   0.0000000), wk =   0.0185185
        k(   91) = (   0.1666667   0.1666667   0.0000000), wk =   0.0092593
        k(   92) = (   0.1666667   0.1944444   0.0000000), wk =   0.0185185
        k(   93) = (   0.1666667   0.2222222   0.0000000), wk =   0.0185185
        k(   94) = (   0.1666667   0.2500000   0.0000000), wk =   0.0185185
        k(   95) = (   0.1666667   0.2777778   0.0000000), wk =   0.0185185
        k(   96) = (   0.1666667   0.3055556   0.0000000), wk =   0.0185185
        k(   97) = (   0.1666667   0.3333333   0.0000000), wk =   0.0185185
        k(   98) = (   0.1666667   0.3611111   0.0000000), wk =   0.0185185
        k(   99) = (   0.1666667   0.3888889   0.0000000), wk =   0.0185185
        k(  100) = (   0.1666667   0.4166667   0.0000000), wk =   0.0092593
        k(  101) = (   0.1944444   0.1944444   0.0000000), wk =   0.0092593
        k(  102) = (   0.1944444   0.2222222   0.0000000), wk =   0.0185185
        k(  103) = (   0.1944444   0.2500000   0.0000000), wk =   0.0185185
        k(  104) = (   0.1944444   0.2777778   0.0000000), wk =   0.0185185
        k(  105) = (   0.1944444   0.3055556   0.0000000), wk =   0.0185185
        k(  106) = (   0.1944444   0.3333333   0.0000000), wk =   0.0185185
        k(  107) = (   0.1944444   0.3611111   0.0000000), wk =   0.0185185
        k(  108) = (   0.1944444   0.3888889   0.0000000), wk =   0.0185185
        k(  109) = (   0.2222222   0.2222222   0.0000000), wk =   0.0092593
        k(  110) = (   0.2222222   0.2500000   0.0000000), wk =   0.0185185
        k(  111) = (   0.2222222   0.2777778   0.0000000), wk =   0.0185185
        k(  112) = (   0.2222222   0.3055556   0.0000000), wk =   0.0185185
        k(  113) = (   0.2222222   0.3333333   0.0000000), wk =   0.0185185
        k(  114) = (   0.2222222   0.3611111   0.0000000), wk =   0.0185185
        k(  115) = (   0.2222222   0.3888889   0.0000000), wk =   0.0092593
        k(  116) = (   0.2500000   0.2500000   0.0000000), wk =   0.0092593
        k(  117) = (   0.2500000   0.2777778   0.0000000), wk =   0.0185185
        k(  118) = (   0.2500000   0.3055556   0.0000000), wk =   0.0185185
        k(  119) = (   0.2500000   0.3333333   0.0000000), wk =   0.0185185
        k(  120) = (   0.2500000   0.3611111   0.0000000), wk =   0.0185185
        k(  121) = (   0.2777778   0.2777778   0.0000000), wk =   0.0092593
        k(  122) = (   0.2777778   0.3055556   0.0000000), wk =   0.0185185
        k(  123) = (   0.2777778   0.3333333   0.0000000), wk =   0.0185185
        k(  124) = (   0.2777778   0.3611111   0.0000000), wk =   0.0092593
        k(  125) = (   0.3055556   0.3055556   0.0000000), wk =   0.0092593
        k(  126) = (   0.3055556   0.3333333   0.0000000), wk =   0.0185185
        k(  127) = (   0.3333333   0.3333333   0.0000000), wk =   0.0030864

     Dense  grid:   126311 G-vectors     FFT dimensions: (  36,  36, 270)

     Smooth grid:    68693 G-vectors     FFT dimensions: (  27,  27, 216)

     Dynamical RAM for                 wfc:       0.26 MB

     Dynamical RAM for     wfc (w. buffer):       5.25 MB

     Dynamical RAM for           str. fact:       0.48 MB

     Dynamical RAM for           local pot:       0.00 MB

     Dynamical RAM for          nlocal pot:       0.52 MB

     Dynamical RAM for                qrad:       0.50 MB

     Dynamical RAM for          rho,v,vnew:       3.46 MB

     Dynamical RAM for               rhoin:       1.15 MB

     Dynamical RAM for            rho*nmix:       7.71 MB

     Dynamical RAM for           G-vectors:       1.94 MB

     Dynamical RAM for          h,s,v(r/c):       0.00 MB

     Dynamical RAM for          <psi|beta>:       0.00 MB

     Dynamical RAM for                 psi:       0.52 MB

     Dynamical RAM for                hpsi:       0.52 MB

     Dynamical RAM for                spsi:       0.52 MB

     Dynamical RAM for      wfcinit/wfcrot:       0.53 MB

     Dynamical RAM for           addusdens:       3.51 MB

     Dynamical RAM for          addusforce:       3.48 MB

     Dynamical RAM for         addusstress:       3.65 MB

     Estimated static dynamical RAM per process >      17.64 MB

     Estimated max dynamical RAM per process >      28.99 MB

     Estimated total dynamical RAM >     626.77 MB

     Initial potential from superposition of free atoms

     starting charge       7.9999, renormalised to       8.0000

     negative rho (up, down):  6.407E-05 0.000E+00
     Starting wfcs are    8 randomized atomic wfcs
     Checking if some PAW data can be deallocated... 

     total cpu time spent up to now is        7.0 secs

     Self-consistent Calculation

     iteration #  1     ecut=    80.00 Ry     beta= 0.70
     Davidson diagonalization with overlap

---- Real-time Memory Report at c_bands before calling an iterative solver
           153 MiB given to the printing process from OS
             0 MiB allocation reported by mallinfo(arena+hblkhd)
         53838 MiB available memory on the node where the printing process lives
------------------
     ethr =  1.00E-02,  avg # of iterations =  5.8

     negative rho (up, down):  8.471E-05 0.000E+00

     total cpu time spent up to now is       16.0 secs

     total energy              =     -36.86199273 Ry
     estimated scf accuracy    <       0.19020894 Ry

     iteration #  2     ecut=    80.00 Ry     beta= 0.70
     Davidson diagonalization with overlap

---- Real-time Memory Report at c_bands before calling an iterative solver
           181 MiB given to the printing process from OS
             0 MiB allocation reported by mallinfo(arena+hblkhd)
         53228 MiB available memory on the node where the printing process lives
------------------
     ethr =  2.38E-03,  avg # of iterations =  3.9

     negative rho (up, down):  9.941E-05 0.000E+00

     total cpu time spent up to now is       23.2 secs

     total energy              =     -36.88772203 Ry
     estimated scf accuracy    <       0.00193366 Ry

     iteration #  3     ecut=    80.00 Ry     beta= 0.70
     Davidson diagonalization with overlap

---- Real-time Memory Report at c_bands before calling an iterative solver
           188 MiB given to the printing process from OS
             0 MiB allocation reported by mallinfo(arena+hblkhd)
         53130 MiB available memory on the node where the printing process lives
------------------
     c_bands:  1 eigenvalues not converged
     ethr =  2.42E-05,  avg # of iterations = 13.3

     negative rho (up, down):  1.089E-04 0.000E+00

     total cpu time spent up to now is       33.7 secs

     total energy              =     -36.88803161 Ry
     estimated scf accuracy    <       0.00015023 Ry

     iteration #  4     ecut=    80.00 Ry     beta= 0.70
     Davidson diagonalization with overlap

---- Real-time Memory Report at c_bands before calling an iterative solver
           190 MiB given to the printing process from OS
             0 MiB allocation reported by mallinfo(arena+hblkhd)
         53124 MiB available memory on the node where the printing process lives
------------------
     ethr =  1.88E-06,  avg # of iterations =  5.4

     negative rho (up, down):  1.101E-04 0.000E+00

     total cpu time spent up to now is       40.6 secs

     total energy              =     -36.88804404 Ry
     estimated scf accuracy    <       0.00000194 Ry

     iteration #  5     ecut=    80.00 Ry     beta= 0.70
     Davidson diagonalization with overlap

---- Real-time Memory Report at c_bands before calling an iterative solver
           193 MiB given to the printing process from OS
             0 MiB allocation reported by mallinfo(arena+hblkhd)
         53120 MiB available memory on the node where the printing process lives
------------------
     ethr =  2.42E-08,  avg # of iterations =  3.1

     negative rho (up, down):  1.103E-04 0.000E+00

     total cpu time spent up to now is       46.6 secs

     total energy              =     -36.88804513 Ry
     estimated scf accuracy    <       0.00000006 Ry

     iteration #  6     ecut=    80.00 Ry     beta= 0.70
     Davidson diagonalization with overlap

---- Real-time Memory Report at c_bands before calling an iterative solver
           195 MiB given to the printing process from OS
             0 MiB allocation reported by mallinfo(arena+hblkhd)
         53116 MiB available memory on the node where the printing process lives
------------------
     ethr =  7.53E-10,  avg # of iterations =  2.7

     negative rho (up, down):  1.103E-04 0.000E+00

     total cpu time spent up to now is       52.3 secs

     total energy              =     -36.88804515 Ry
     estimated scf accuracy    <          3.3E-10 Ry

     iteration #  7     ecut=    80.00 Ry     beta= 0.70
     Davidson diagonalization with overlap

---- Real-time Memory Report at c_bands before calling an iterative solver
           198 MiB given to the printing process from OS
             0 MiB allocation reported by mallinfo(arena+hblkhd)
         53112 MiB available memory on the node where the printing process lives
------------------
     ethr =  4.14E-12,  avg # of iterations =  3.7

     negative rho (up, down):  1.103E-04 0.000E+00

     total cpu time spent up to now is       59.9 secs

     total energy              =     -36.88804515 Ry
     estimated scf accuracy    <          9.5E-12 Ry

     iteration #  8     ecut=    80.00 Ry     beta= 0.70
     Davidson diagonalization with overlap

---- Real-time Memory Report at c_bands before calling an iterative solver
           200 MiB given to the printing process from OS
             0 MiB allocation reported by mallinfo(arena+hblkhd)
         53107 MiB available memory on the node where the printing process lives
------------------
     ethr =  1.19E-13,  avg # of iterations =  2.3

     negative rho (up, down):  1.103E-04 0.000E+00

     total cpu time spent up to now is       68.7 secs

     End of self-consistent calculation

          k = 0.0000 0.0000 0.0000 (  8675 PWs)   bands (ev):

   -21.8715  -9.9677  -5.4096  -5.4096   0.8920   1.6346   1.8360   2.7978

     occupation numbers 
     1.0000   1.0000   1.0000   1.0000  -0.0000  -0.0000  -0.0000  -0.0000

          k = 0.0000 0.0321 0.0000 (  8671 PWs)   bands (ev):

   -21.8533  -9.9459  -5.4853  -5.4496   0.9167   1.6597   1.8613   2.8229

     occupation numbers 
     1.0000   1.0000   1.0000   1.0000  -0.0000  -0.0000  -0.0000  -0.0000

          k = 0.0000 0.0642 0.0000 (  8689 PWs)   bands (ev):

   -21.7987  -9.8806  -5.7071  -5.5657   0.9910   1.7349   1.9373   2.8982

     occupation numbers 
     1.0000   1.0000   1.0000   1.0000  -0.0000  -0.0000  -0.0000  -0.0000

          k = 0.0000 0.0962 0.0000 (  8691 PWs)   bands (ev):

   -21.7078  -9.7720  -6.0602  -5.7476   1.1147   1.8604   2.0640   3.0236

     occupation numbers 
     1.0000   1.0000   1.0000   1.0000  -0.0000  -0.0000  -0.0000  -0.0000

          k = 0.0000 0.1283 0.0000 (  8679 PWs)   bands (ev):

   -21.5806  -9.6203  -6.5243  -5.9807   1.2880   2.0359   2.2413   3.1991

     occupation numbers 
     1.0000   1.0000   1.0000   1.0000  -0.0000  -0.0000  -0.0000  -0.0000

          k = 0.0000 0.1604 0.0000 (  8661 PWs)   bands (ev):

   -21.4174  -9.4261  -7.0771  -6.2495   1.5107   2.2614   2.4693   3.4245

     occupation numbers 
     1.0000   1.0000   1.0000   1.0000  -0.0000  -0.0000  -0.0000  -0.0000

          k = 0.0000 0.1925 0.0000 (  8633 PWs)   bands (ev):

   -21.2183  -9.1900  -7.6977  -6.5393   1.7828   2.5367   2.7480   3.6997

     occupation numbers 
     1.0000   1.0000   1.0000   1.0000  -0.0000  -0.0000  -0.0000  -0.0000

          k = 0.0000 0.2245 0.0000 (  8619 PWs)   bands (ev):

   -20.9836  -8.9129  -8.3676  -6.8373   2.1042   2.8613   3.0773   4.0239

     occupation numbers 
     1.0000   1.0000   1.0000   1.0000  -0.0000  -0.0000  -0.0000  -0.0000

          k = 0.0000 0.2566 0.0000 (  8607 PWs)   bands (ev):

   -20.7137  -9.0711  -8.5960  -7.1332   2.4747   3.2341   3.4573   4.3945

     occupation numbers 
     1.0000   1.0000   1.0000   1.0000  -0.0000  -0.0000  -0.0000  -0.0000

          k = 0.0000 0.2887 0.0000 (  8603 PWs)   bands (ev):

   -20.4089  -9.7954  -8.2410  -7.4184   2.8940   3.6502   3.8879   4.7408

     occupation numbers 
     1.0000   1.0000   1.0000   1.0000  -0.0000  -0.0000  -0.0000  -0.0000

          k = 0.0000 0.3208 0.0000 (  8588 PWs)   bands (ev):

   -20.0698 -10.5300  -7.8501  -7.6864   3.3617   3.9656   4.2786   4.3686

     occupation numbers 
     1.0000   1.0000   1.0000   1.0000  -0.0000  -0.0000  -0.0000  -0.0000

          k = 0.0000 0.3528 0.0000 (  8568 PWs)   bands (ev):

   -19.6971 -11.2664  -7.9320  -7.4265   3.3122   3.8769   4.6879   4.8990

     occupation numbers 
     1.0000   1.0000   1.0000   1.0000  -0.0000  -0.0000  -0.0000  -0.0000

          k = 0.0000 0.3849 0.0000 (  8570 PWs)   bands (ev):

   -19.2916 -11.9973  -8.1513  -6.9752   2.5501   4.4365   5.2529   5.3461

     occupation numbers 
     1.0000   1.0000   1.0000   1.0000  -0.0000  -0.0000  -0.0000  -0.0000

          k = 0.0000 0.4170 0.0000 (  8574 PWs)   bands (ev):

   -18.8549 -12.7166  -8.3412  -6.5034   1.7980   5.0083   5.3070   5.8717

     occupation numbers 
     1.0000   1.0000   1.0000   1.0000  -0.0000  -0.0000  -0.0000  -0.0000

          k = 0.0000 0.4491 0.0000 (  8570 PWs)   bands (ev):

   -18.3889 -13.4183  -8.4993  -6.0232   1.0791   5.1472   5.7504   6.5397

     occupation numbers 
     1.0000   1.0000   1.0000   1.0000  -0.0000  -0.0000  -0.0000  -0.0000

          k = 0.0000 0.4811 0.0000 (  8576 PWs)   bands (ev):

   -17.8979 -14.0955  -8.6239  -5.5556   0.4203   5.0969   6.4439   7.2542

     occupation numbers 
     1.0000   1.0000   1.0000   1.0000  -0.0000  -0.0000  -0.0000  -0.0000

          k = 0.0000 0.5132 0.0000 (  8574 PWs)   bands (ev):

   -17.3920 -14.7357  -8.7138  -5.1371  -0.1375   5.0537   7.1917   8.0139

     occupation numbers 
     1.0000   1.0000   1.0000   1.0000  -0.0000  -0.0000  -0.0000  -0.0000

          k = 0.0000 0.5453 0.0000 (  8570 PWs)   bands (ev):

   -16.9079 -15.3010  -8.7681  -4.8297  -0.5295   5.0266   7.9833   8.8134

     occupation numbers 
     1.0000   1.0000   1.0000   1.0000  -0.0000  -0.0000  -0.0000  -0.0000

          k = 0.0000-0.5774 0.0000 (  8562 PWs)   bands (ev):

   -16.6390 -15.5971  -8.7862  -4.7132  -0.6745   5.0174   8.7448   8.8947

     occupation numbers 
     1.0000   1.0000   1.0000   1.0000  -0.0000  -0.0000  -0.0000  -0.0000

          k = 0.0278 0.0481 0.0000 (  8675 PWs)   bands (ev):

   -21.8169  -9.9024  -5.6321  -5.5296   0.9662   1.7099   1.9120   2.8731

     occupation numbers 
     1.0000   1.0000   1.0000   1.0000  -0.0000  -0.0000  -0.0000  -0.0000

          k = 0.0278 0.0802 0.0000 (  8681 PWs)   bands (ev):

   -21.7441  -9.8154  -5.9146  -5.6836   1.0652   1.8102   2.0133   2.9734

     occupation numbers 
     1.0000   1.0000   1.0000   1.0000  -0.0000  -0.0000  -0.0000  -0.0000

          k = 0.0278 0.1123 0.0000 (  8677 PWs)   bands (ev):

   -21.6351  -9.6852  -6.3170  -5.8974   1.2137   1.9607   2.1653   3.1240

     occupation numbers 
     1.0000   1.0000   1.0000   1.0000  -0.0000  -0.0000  -0.0000  -0.0000

          k = 0.0278 0.1443 0.0000 (  8661 PWs)   bands (ev):

   -21.4899  -9.5123  -6.8191  -6.1548   1.4117   2.1612   2.3680   3.3244

     occupation numbers 
     1.0000   1.0000   1.0000   1.0000  -0.0000  -0.0000  -0.0000  -0.0000

          k = 0.0278 0.1764 0.0000 (  8649 PWs)   bands (ev):

   -21.3087  -9.2971  -7.4002  -6.4399   1.6592   2.4116   2.6214   3.5747

     occupation numbers 
     1.0000   1.0000   1.0000   1.0000  -0.0000  -0.0000  -0.0000  -0.0000

          k = 0.0278 0.2085 0.0000 (  8632 PWs)   bands (ev):

   -21.0918  -9.0405  -8.0407  -6.7388   1.9559   2.7116   2.9254   3.8745

     occupation numbers 
     1.0000   1.0000   1.0000   1.0000  -0.0000  -0.0000  -0.0000  -0.0000

          k = 0.0278 0.2406 0.0000 (  8615 PWs)   bands (ev):

   -20.8395  -8.7434  -8.7235  -7.0397   2.3019   3.0606   3.2800   4.2227

     occupation numbers 
     1.0000   1.0000   1.0000   1.0000  -0.0000  -0.0000  -0.0000  -0.0000

          k = 0.0278 0.2726 0.0000 (  8617 PWs)   bands (ev):

   -20.5522  -9.4344  -8.4073  -7.3334   2.6969   3.4564   3.6852   4.6104

     occupation numbers 
     1.0000   1.0000   1.0000   1.0000  -0.0000  -0.0000  -0.0000  -0.0000

          k = 0.0278 0.3047 0.0000 (  8597 PWs)   bands (ev):

   -20.2302 -10.1615  -8.0341  -7.6124   3.1406   3.8809   4.1410   4.4924

     occupation numbers 
     1.0000   1.0000   1.0000   1.0000  -0.0000  -0.0000  -0.0000  -0.0000

          k = 0.0278 0.3368 0.0000 (  8597 PWs)   bands (ev):

   -19.8743 -10.8952  -7.8710  -7.6265   3.6323   3.6706   4.4501   4.6469

     occupation numbers 
     1.0000   1.0000   1.0000   1.0000  -0.0000  -0.0000  -0.0000  -0.0000

          k = 0.0278 0.3689 0.0000 (  8574 PWs)   bands (ev):

   -19.4852 -11.6276  -8.1048  -7.1885   2.9203   4.1707   4.9798   5.1998

     occupation numbers 
     1.0000   1.0000   1.0000   1.0000  -0.0000  -0.0000  -0.0000  -0.0000

          k = 0.0278 0.4009 0.0000 (  8572 PWs)   bands (ev):

   -19.0640 -12.3517  -8.3104  -6.7258   2.1622   4.7494   5.3967   5.5733

     occupation numbers 
     1.0000   1.0000   1.0000   1.0000  -0.0000  -0.0000  -0.0000  -0.0000

          k = 0.0278 0.4330 0.0000 (  8569 PWs)   bands (ev):

   -18.6125 -13.0617  -8.4851  -6.2480   1.4260   5.2198   5.4804   6.2163

     occupation numbers 
     1.0000   1.0000   1.0000   1.0000  -0.0000  -0.0000  -0.0000  -0.0000

          k = 0.0278 0.4651 0.0000 (  8579 PWs)   bands (ev):

   -18.1335 -13.7511  -8.6270  -5.7706   0.7348   5.2050   6.1077   6.9078

     occupation numbers 
     1.0000   1.0000   1.0000   1.0000  -0.0000  -0.0000  -0.0000  -0.0000

          k = 0.0278 0.4972 0.0000 (  8586 PWs)   bands (ev):

   -17.6333 -14.4112  -8.7346  -5.3212   0.1211   5.1565   6.8300   7.6444

     occupation numbers 
     1.0000   1.0000   1.0000   1.0000  -0.0000  -0.0000  -0.0000  -0.0000

          k = 0.0278 0.5292 0.0000 (  8571 PWs)   bands (ev):

   -17.1300 -15.0219  -8.8069  -4.9484  -0.3632   5.1211   7.6000   8.4233

     occupation numbers 
     1.0000   1.0000   1.0000   1.0000  -0.0000  -0.0000  -0.0000  -0.0000

          k = 0.0278 0.5613 0.0000 (  8560 PWs)   bands (ev):

   -16.7070 -15.4990  -8.8431  -4.7266  -0.6413   5.1028   8.4089   9.2715

     occupation numbers 
     1.0000   1.0000   1.0000   1.0000  -0.0000  -0.0000  -0.0000  -0.0000

          k = 0.0556 0.0962 0.0000 (  8677 PWs)   bands (ev):

   -21.6532  -9.7069  -6.2377  -5.8784   1.1890   1.9356   2.1400   3.0989

     occupation numbers 
     1.0000   1.0000   1.0000   1.0000  -0.0000  -0.0000  -0.0000  -0.0000

          k = 0.0556 0.1283 0.0000 (  8669 PWs)   bands (ev):

   -21.5262  -9.5555  -6.6644  -6.1303   1.3623   2.1111   2.3174   3.2745

     occupation numbers 
     1.0000   1.0000   1.0000   1.0000  -0.0000  -0.0000  -0.0000  -0.0000

          k = 0.0556 0.1604 0.0000 (  8649 PWs)   bands (ev):

   -21.3630  -9.3615  -7.1805  -6.4186   1.5850   2.3366   2.5454   3.4998

     occupation numbers 
     1.0000   1.0000   1.0000   1.0000  -0.0000  -0.0000  -0.0000  -0.0000

          k = 0.0556 0.1925 0.0000 (  8637 PWs)   bands (ev):

   -21.1641  -9.1257  -7.7687  -6.7258   1.8572   2.6118   2.8241   3.7748

     occupation numbers 
     1.0000   1.0000   1.0000   1.0000  -0.0000  -0.0000  -0.0000  -0.0000

          k = 0.0556 0.2245 0.0000 (  8613 PWs)   bands (ev):

   -20.9296  -8.8490  -8.4119  -7.0381   2.1786   2.9364   3.1534   4.0991

     occupation numbers 
     1.0000   1.0000   1.0000   1.0000  -0.0000  -0.0000  -0.0000  -0.0000

          k = 0.0556 0.2566 0.0000 (  8599 PWs)   bands (ev):

   -20.6598  -9.0941  -8.5326  -7.3450   2.5492   3.3093   3.5334   4.4699

     occupation numbers 
     1.0000   1.0000   1.0000   1.0000  -0.0000  -0.0000  -0.0000  -0.0000

          k = 0.0556 0.2887 0.0000 (  8596 PWs)   bands (ev):

   -20.3553  -9.8018  -8.1780  -7.6387   2.9687   3.7254   3.9639   4.7436

     occupation numbers 
     1.0000   1.0000   1.0000   1.0000  -0.0000  -0.0000  -0.0000  -0.0000

          k = 0.0556 0.3208 0.0000 (  8589 PWs)   bands (ev):

   -20.0165 -10.5234  -7.9130  -7.7876   3.4366   3.9588   4.2906   4.4450

     occupation numbers 
     1.0000   1.0000   1.0000   1.0000  -0.0000  -0.0000  -0.0000  -0.0000

          k = 0.0556 0.3528 0.0000 (  8595 PWs)   bands (ev):

   -19.6442 -11.2497  -8.1633  -7.3645   3.2613   3.9524   4.7549   4.9763

     occupation numbers 
     1.0000   1.0000   1.0000   1.0000  -0.0000  -0.0000  -0.0000  -0.0000

          k = 0.0556 0.3849 0.0000 (  8587 PWs)   bands (ev):

   -19.2393 -11.9728  -8.3859  -6.9136   2.5081   4.5141   5.3214   5.5476

     occupation numbers 
     1.0000   1.0000   1.0000   1.0000  -0.0000  -0.0000  -0.0000  -0.0000

          k = 0.0556 0.4170 0.0000 (  8572 PWs)   bands (ev):

   -18.8031 -12.6860  -8.5782  -6.4420   1.7652   5.1110   5.6030   5.9403

     occupation numbers 
     1.0000   1.0000   1.0000   1.0000  -0.0000  -0.0000  -0.0000  -0.0000

          k = 0.0556 0.4491 0.0000 (  8571 PWs)   bands (ev):

   -18.3378 -13.3829  -8.7380  -5.9618   1.0539   5.4602   5.8371   6.6062

     occupation numbers 
     1.0000   1.0000   1.0000   1.0000  -0.0000  -0.0000  -0.0000  -0.0000

          k = 0.0556 0.4811 0.0000 (  8576 PWs)   bands (ev):

   -17.8477 -14.0562  -8.8638  -5.4934   0.4004   5.4226   6.5174   7.3183

     occupation numbers 
     1.0000   1.0000   1.0000   1.0000  -0.0000  -0.0000  -0.0000  -0.0000

          k = 0.0556 0.5132 0.0000 (  8575 PWs)   bands (ev):

   -17.3429 -14.6933  -8.9543  -5.0734  -0.1545   5.3807   7.2629   8.0733

     occupation numbers 
     1.0000   1.0000   1.0000   1.0000  -0.0000  -0.0000  -0.0000  -0.0000

          k = 0.0556 0.5453 0.0000 (  8571 PWs)   bands (ev):

   -16.8601 -15.2562  -9.0090  -4.7642  -0.5459   5.3537   8.0524   8.8639

     occupation numbers 
     1.0000   1.0000   1.0000   1.0000  -0.0000  -0.0000  -0.0000  -0.0000

          k = 0.0556 0.5774 0.0000 (  8564 PWs)   bands (ev):

   -16.5922 -15.5508  -9.0273  -4.6466  -0.6910   5.3446   8.8090   8.9632

     occupation numbers 
     1.0000   1.0000   1.0000   1.0000  -0.0000  -0.0000  -0.0000  -0.0000

          k = 0.0833 0.1443 0.0000 (  8645 PWs)   bands (ev):

   -21.3812  -9.3830  -7.0941  -6.4243   1.5603   2.3115   2.5200   3.4746

     occupation numbers 
     1.0000   1.0000   1.0000   1.0000  -0.0000  -0.0000  -0.0000  -0.0000

          k = 0.0833 0.1764 0.0000 (  8635 PWs)   bands (ev):

   -21.2002  -9.1684  -7.6006  -6.7516   1.8078   2.5618   2.7734   3.7249

     occupation numbers 
     1.0000   1.0000   1.0000   1.0000  -0.0000  -0.0000  -0.0000  -0.0000

          k = 0.0833 0.2085 0.0000 (  8618 PWs)   bands (ev):

   -20.9837  -8.9125  -8.1748  -7.0891   2.1047   2.8618   3.0774   4.0253

     occupation numbers 
     1.0000   1.0000   1.0000   1.0000  -0.0000  -0.0000  -0.0000  -0.0000

          k = 0.0833 0.2406 0.0000 (  8604 PWs)   bands (ev):

   -20.7317  -8.8036  -8.6163  -7.4215   2.4508   3.2108   3.4321   4.3733

     occupation numbers 
     1.0000   1.0000   1.0000   1.0000  -0.0000  -0.0000  -0.0000  -0.0000

          k = 0.0833 0.2726 0.0000 (  8602 PWs)   bands (ev):

   -20.4448  -9.4722  -8.2812  -7.7391   2.8459   3.6070   3.8375   4.7564

     occupation numbers 
     1.0000   1.0000   1.0000   1.0000  -0.0000  -0.0000  -0.0000  -0.0000

          k = 0.0833 0.3047 0.0000 (  8597 PWs)   bands (ev):

   -20.1235 -10.1667  -8.0358  -7.9090   3.2898   4.0201   4.2933   4.3512

     occupation numbers 
     1.0000   1.0000   1.0000   1.0000  -0.0000  -0.0000  -0.0000  -0.0000

          k = 0.0833 0.3368 0.0000 (  8587 PWs)   bands (ev):

   -19.7682 -10.8755  -8.3073  -7.5024   3.5588   3.7820   4.5774   4.7997

     occupation numbers 
     1.0000   1.0000   1.0000   1.0000  -0.0000  -0.0000  -0.0000  -0.0000

          k = 0.0833 0.3689 0.0000 (  8590 PWs)   bands (ev):

   -19.3800 -11.5887  -8.5503  -7.0653   2.8214   4.3217   5.1174   5.3560

     occupation numbers 
     1.0000   1.0000   1.0000   1.0000  -0.0000  -0.0000  -0.0000  -0.0000

          k = 0.0833 0.4009 0.0000 (  8583 PWs)   bands (ev):

   -18.9599 -12.2982  -8.7625  -6.6033   2.0834   4.9070   5.7103   5.9476

     occupation numbers 
     1.0000   1.0000   1.0000   1.0000  -0.0000  -0.0000  -0.0000  -0.0000

          k = 0.0833 0.4330 0.0000 (  8583 PWs)   bands (ev):

   -18.5096 -12.9967  -8.9418  -6.1256   1.3646   5.5247   5.9542   6.3515

     occupation numbers 
     1.0000   1.0000   1.0000   1.0000  -0.0000  -0.0000  -0.0000  -0.0000

          k = 0.0833 0.4651 0.0000 (  8576 PWs)   bands (ev):

   -18.0322 -13.6771  -9.0868  -5.6475   0.6867   5.8261   6.2658   7.0378

     occupation numbers 
     1.0000   1.0000   1.0000   1.0000  -0.0000  -0.0000  -0.0000  -0.0000

          k = 0.0833 0.4972 0.0000 (  8585 PWs)   bands (ev):

   -17.5338 -14.3301  -9.1965  -5.1959   0.0814   5.7895   6.9747   7.7664

     occupation numbers 
     1.0000   1.0000   1.0000   1.0000  -0.0000  -0.0000  -0.0000  -0.0000

          k = 0.0833 0.5292 0.0000 (  8582 PWs)   bands (ev):

   -17.0330 -14.9352  -9.2700  -4.8194  -0.3995   5.7554   7.7405   8.5304

     occupation numbers 
     1.0000   1.0000   1.0000   1.0000  -0.0000  -0.0000  -0.0000  -0.0000

          k = 0.0833 0.5613 0.0000 (  8581 PWs)   bands (ev):

   -16.6127 -15.4080  -9.3069  -4.5941  -0.6776   5.7374   8.5438   9.3992

     occupation numbers 
     1.0000   1.0000   1.0000   1.0000  -0.0000  -0.0000  -0.0000  -0.0000

          k = 0.1111 0.1925 0.0000 (  8609 PWs)   bands (ev):

   -21.0017  -8.9337  -8.0799  -7.1225   2.0801   2.8369   3.0521   4.0000

     occupation numbers 
     1.0000   1.0000   1.0000   1.0000  -0.0000  -0.0000  -0.0000  -0.0000

          k = 0.1111 0.2245 0.0000 (  8603 PWs)   bands (ev):

   -20.7677  -8.6582  -8.6197  -7.5003   2.4016   3.1615   3.3815   4.3245

     occupation numbers 
     1.0000   1.0000   1.0000   1.0000  -0.0000  -0.0000  -0.0000  -0.0000

          k = 0.1111 0.2566 0.0000 (  8586 PWs)   bands (ev):

   -20.4986  -9.2155  -8.3432  -7.8628   2.7723   3.5347   3.7615   4.6964

     occupation numbers 
     1.0000   1.0000   1.0000   1.0000  -0.0000  -0.0000  -0.0000  -0.0000

          k = 0.1111 0.2887 0.0000 (  8579 PWs)   bands (ev):

   -20.1949  -9.8558  -8.1987  -7.9902   3.1918   3.9508   4.1922   4.5189

     occupation numbers 
     1.0000   1.0000   1.0000   1.0000  -0.0000  -0.0000  -0.0000  -0.0000

          k = 0.1111 0.3208 0.0000 (  8586 PWs)   bands (ev):

   -19.8570 -10.5267  -8.5034  -7.6014   3.6600   3.7961   4.4466   4.6734

     occupation numbers 
     1.0000   1.0000   1.0000   1.0000  -0.0000  -0.0000  -0.0000  -0.0000

          k = 0.1111 0.3528 0.0000 (  8588 PWs)   bands (ev):

   -19.4859 -11.2151  -8.7752  -7.1799   3.0849   4.1762   4.9612   5.2051

     occupation numbers 
     1.0000   1.0000   1.0000   1.0000  -0.0000  -0.0000  -0.0000  -0.0000

          k = 0.1111 0.3849 0.0000 (  8589 PWs)   bands (ev):

   -19.0824 -11.9096  -9.0129  -6.7303   2.3637   4.7397   5.5289   5.7868

     occupation numbers 
     1.0000   1.0000   1.0000   1.0000  -0.0000  -0.0000  -0.0000  -0.0000

          k = 0.1111 0.4170 0.0000 (  8593 PWs)   bands (ev):

   -18.6479 -12.6011  -9.2156  -6.2595   1.6507   5.3486   6.1440   6.4068

     occupation numbers 
     1.0000   1.0000   1.0000   1.0000  -0.0000  -0.0000  -0.0000  -0.0000

          k = 0.1111 0.4491 0.0000 (  8584 PWs)   bands (ev):

   -18.1848 -13.2815  -9.3826  -5.7789   0.9636   5.9912   6.4292   6.8039

     occupation numbers 
     1.0000   1.0000   1.0000   1.0000  -0.0000  -0.0000  -0.0000  -0.0000

          k = 0.1111 0.4811 0.0000 (  8582 PWs)   bands (ev):

   -17.6973 -13.9420  -9.5131  -5.3084   0.3272   6.3153   6.7472   7.5044

     occupation numbers 
     1.0000   1.0000   1.0000   1.0000  -0.0000  -0.0000  -0.0000  -0.0000

          k = 0.1111 0.5132 0.0000 (  8593 PWs)   bands (ev):

   -17.1957 -14.5692  -9.6068  -4.8838  -0.2187   6.2857   7.4770   8.2381

     occupation numbers 
     1.0000   1.0000   1.0000   1.0000  -0.0000  -0.0000  -0.0000  -0.0000

          k = 0.1111 0.5453 0.0000 (  8582 PWs)   bands (ev):

   -16.7168 -15.1243  -9.6631  -4.5681  -0.6083   6.2601   8.2589   8.9818

     occupation numbers 
     1.0000   1.0000   1.0000   1.0000  -0.0000  -0.0000  -0.0000  -0.0000

          k = 0.1111 0.5774 0.0000 (  8576 PWs)   bands (ev):

   -16.4517 -15.4148  -9.6819  -4.4472  -0.7540   6.2512   8.9991   9.1671

     occupation numbers 
     1.0000   1.0000   1.0000   1.0000  -0.0000  -0.0000  -0.0000  -0.0000

          k = 0.1389 0.2406 0.0000 (  8595 PWs)   bands (ev):

   -20.5165  -9.1108  -8.3639  -7.9239   2.7477   3.5105   3.7362   4.6735

     occupation numbers 
     1.0000   1.0000   1.0000   1.0000  -0.0000  -0.0000  -0.0000  -0.0000

          k = 0.1389 0.2726 0.0000 (  8585 PWs)   bands (ev):

   -20.2306  -9.6547  -8.3284  -8.0309   3.1428   3.9077   4.1416   4.6193

     occupation numbers 
     1.0000   1.0000   1.0000   1.0000  -0.0000  -0.0000  -0.0000  -0.0000

          k = 0.1389 0.3047 0.0000 (  8594 PWs)   bands (ev):

   -19.9104 -10.2494  -8.6945  -7.6610   3.5866   3.9552   4.3616   4.5976

     occupation numbers 
     1.0000   1.0000   1.0000   1.0000  -0.0000  -0.0000  -0.0000  -0.0000

          k = 0.1389 0.3368 0.0000 (  8588 PWs)   bands (ev):

   -19.5566 -10.8835  -9.0161  -7.2567   3.2784   4.0788   4.8542   5.1042

     occupation numbers 
     1.0000   1.0000   1.0000   1.0000  -0.0000  -0.0000  -0.0000  -0.0000

          k = 0.1389 0.3689 0.0000 (  8592 PWs)   bands (ev):

   -19.1701 -11.5421  -9.2937  -6.8218   2.5864   4.6188   5.3968   5.6612

     occupation numbers 
     1.0000   1.0000   1.0000   1.0000  -0.0000  -0.0000  -0.0000  -0.0000

          k = 0.1389 0.4009 0.0000 (  8609 PWs)   bands (ev):

   -18.7521 -12.2116  -9.5293  -6.3615   1.8930   5.2057   5.9854   6.2683

     occupation numbers 
     1.0000   1.0000   1.0000   1.0000  -0.0000  -0.0000  -0.0000  -0.0000

          k = 0.1389 0.4330 0.0000 (  8601 PWs)   bands (ev):

   -18.3045 -12.8806  -9.7244  -5.8844   1.2122   5.8376   6.6177   6.9191

     occupation numbers 
     1.0000   1.0000   1.0000   1.0000  -0.0000  -0.0000  -0.0000  -0.0000

          k = 0.1389 0.4651 0.0000 (  8583 PWs)   bands (ev):

   -17.8302 -13.5390  -9.8800  -5.4048   0.5633   6.5059   7.0080   7.2890

     occupation numbers 
     1.0000   1.0000   1.0000   1.0000  -0.0000  -0.0000  -0.0000  -0.0000

          k = 0.1389 0.4972 0.0000 (  8582 PWs)   bands (ev):

   -17.3358 -14.1753  -9.9965  -4.9486  -0.0237   6.9066   7.2770   7.9892

     occupation numbers 
     1.0000   1.0000   1.0000   1.0000  -0.0000  -0.0000  -0.0000  -0.0000

          k = 0.1389 0.5292 0.0000 (  8576 PWs)   bands (ev):

   -16.8397 -14.7678 -10.0741  -4.5637  -0.4977   6.8876   8.0210   8.6929

     occupation numbers 
     1.0000   1.0000   1.0000   1.0000  -0.0000  -0.0000  -0.0000  -0.0000

          k = 0.1389 0.5613 0.0000 (  8573 PWs)   bands (ev):

   -16.4244 -15.2318 -10.1129  -4.3300  -0.7765   6.8709   8.8103   9.2959

     occupation numbers 
     1.0000   1.0000   1.0000   1.0000  -0.0000  -0.0000  -0.0000  -0.0000

          k = 0.1667 0.2887 0.0000 (  8579 PWs)   bands (ev):

   -19.9282 -10.1343  -8.7818  -7.6809   3.5622   4.0140   4.3296   4.5723

     occupation numbers 
     1.0000   1.0000   1.0000   1.0000  -0.0000  -0.0000  -0.0000  -0.0000

          k = 0.1667 0.3208 0.0000 (  8599 PWs)   bands (ev):

   -19.5920 -10.6646  -9.1923  -7.2953   3.3819   4.0300   4.7992   5.0536

     occupation numbers 
     1.0000   1.0000   1.0000   1.0000  -0.0000  -0.0000  -0.0000  -0.0000

          k = 0.1667 0.3528 0.0000 (  8598 PWs)   bands (ev):

   -19.2229 -11.2443  -9.5444  -6.8770   2.7312   4.5459   5.3158   5.5854

     occupation numbers 
     1.0000   1.0000   1.0000   1.0000  -0.0000  -0.0000  -0.0000  -0.0000

          k = 0.1667 0.3849 0.0000 (  8601 PWs)   bands (ev):

   -18.8218 -11.8604  -9.8376  -6.4302   2.0709   5.1091   5.8776   6.1677

     occupation numbers 
     1.0000   1.0000   1.0000   1.0000  -0.0000  -0.0000  -0.0000  -0.0000

          k = 0.1667 0.4170 0.0000 (  8607 PWs)   bands (ev):

   -18.3904 -12.4964 -10.0769  -5.9613   1.4118   5.7186   6.4816   6.8001

     occupation numbers 
     1.0000   1.0000   1.0000   1.0000  -0.0000  -0.0000  -0.0000  -0.0000

          k = 0.1667 0.4491 0.0000 (  8599 PWs)   bands (ev):

   -17.9310 -13.1370 -10.2678  -5.4807   0.7685   6.3724   7.1220   7.4797

     occupation numbers 
     1.0000   1.0000   1.0000   1.0000  -0.0000  -0.0000  -0.0000  -0.0000

          k = 0.1667 0.4811 0.0000 (  8591 PWs)   bands (ev):

   -17.4480 -13.7688 -10.4136  -5.0065   0.1632   7.0639   7.6688   7.7862

     occupation numbers 
     1.0000   1.0000   1.0000   1.0000  -0.0000  -0.0000  -0.0000  -0.0000

          k = 0.1667 0.5132 0.0000 (  8573 PWs)   bands (ev):

   -16.9519 -14.3751 -10.5166  -4.5729  -0.3666   7.5725   7.8542   8.4425

     occupation numbers 
     1.0000   1.0000   1.0000   1.0000  -0.0000  -0.0000  -0.0000  -0.0000

          k = 0.1667 0.5453 0.0000 (  8572 PWs)   bands (ev):

   -16.4791 -14.9155 -10.5781  -4.2442  -0.7541   7.5694   8.6007   9.0005

     occupation numbers 
     1.0000   1.0000   1.0000   1.0000  -0.0000  -0.0000  -0.0000  -0.0000

          k = 0.1667 0.5774 0.0000 (  8570 PWs)   bands (ev):

   -16.2179 -15.1994 -10.5985  -4.1160  -0.9022   7.5618   9.2435   9.3058

     occupation numbers 
     1.0000   1.0000   1.0000   1.0000  -0.0000  -0.0000  -0.0000  -0.0000

          k = 0.1944 0.3368 0.0000 (  8613 PWs)   bands (ev):

   -19.2405 -11.1184  -9.6555  -6.8954   2.7816   4.5215   5.2885   5.5601

     occupation numbers 
     1.0000   1.0000   1.0000   1.0000  -0.0000  -0.0000  -0.0000  -0.0000

          k = 0.1944 0.3689 0.0000 (  8615 PWs)   bands (ev):

   -18.8567 -11.6241 -10.0548  -6.4648   2.1656   5.0606   5.8229   6.1172

     occupation numbers 
     1.0000   1.0000   1.0000   1.0000  -0.0000  -0.0000  -0.0000  -0.0000

          k = 0.1944 0.4009 0.0000 (  8601 PWs)   bands (ev):

   -18.4421 -12.1796 -10.3789  -6.0081   1.5420   5.6462   6.3983   6.7247

     occupation numbers 
     1.0000   1.0000   1.0000   1.0000  -0.0000  -0.0000  -0.0000  -0.0000

          k = 0.1944 0.4330 0.0000 (  8601 PWs)   bands (ev):

   -17.9986 -12.7693 -10.6323  -5.5329   0.9213   6.2772   7.0073   7.3823

     occupation numbers 
     1.0000   1.0000   1.0000   1.0000  -0.0000  -0.0000  -0.0000  -0.0000

          k = 0.1944 0.4651 0.0000 (  8601 PWs)   bands (ev):

   -17.5295 -13.3732 -10.8246  -5.0517   0.3191   6.9510   7.6337   8.0883

     occupation numbers 
     1.0000   1.0000   1.0000   1.0000  -0.0000  -0.0000  -0.0000  -0.0000

          k = 0.1944 0.4972 0.0000 (  8578 PWs)   bands (ev):

   -17.0413 -13.9719 -10.9636  -4.5878  -0.2386   7.6611   8.2380   8.3847

     occupation numbers 
     1.0000   1.0000   1.0000   1.0000  -0.0000  -0.0000  -0.0000  -0.0000

          k = 0.1944 0.5292 0.0000 (  8565 PWs)   bands (ev):

   -16.5522 -14.5387 -11.0540  -4.1872  -0.7032   8.2765   8.4814   8.7281

     occupation numbers 
     1.0000   1.0000   1.0000   1.0000  -0.0000  -0.0000  -0.0000  -0.0000

          k = 0.1944 0.5613 0.0000 (  8568 PWs)   bands (ev):

   -16.1430 -14.9880 -11.0987  -3.9364  -0.9864   8.3025   8.9858   9.2017

     occupation numbers 
     1.0000   1.0000   1.0000   1.0000  -0.0000  -0.0000  -0.0000  -0.0000

          k = 0.2222 0.3849 0.0000 (  8609 PWs)   bands (ev):

   -18.4594 -12.0433 -10.5110  -6.0238   1.5874   5.6220   6.3701   6.6995

     occupation numbers 
     1.0000   1.0000   1.0000   1.0000  -0.0000  -0.0000  -0.0000  -0.0000

          k = 0.2222 0.4170 0.0000 (  8613 PWs)   bands (ev):

   -18.0326 -12.5172 -10.8846  -5.5595   1.0032   6.2290   6.9486   7.3321

     occupation numbers 
     1.0000   1.0000   1.0000   1.0000  -0.0000  -0.0000  -0.0000  -0.0000

          k = 0.2222 0.4491 0.0000 (  8603 PWs)   bands (ev):

   -17.5788 -13.0416 -11.1686  -5.0804   0.4229   6.8796   7.5382   8.0146

     occupation numbers 
     1.0000   1.0000   1.0000   1.0000  -0.0000  -0.0000  -0.0000  -0.0000

          k = 0.2222 0.4811 0.0000 (  8590 PWs)   bands (ev):

   -17.1027 -13.5957 -11.3725  -4.6016  -0.1369   7.5701   8.0903   8.7465

     occupation numbers 
     1.0000   1.0000   1.0000   1.0000  -0.0000  -0.0000  -0.0000  -0.0000

          k = 0.2222 0.5132 0.0000 (  8581 PWs)   bands (ev):

   -16.6147 -14.1515 -11.5093  -4.1531  -0.6447   8.2923   8.5081   9.1216

     occupation numbers 
     1.0000   1.0000   1.0000   1.0000  -0.0000  -0.0000  -0.0000  -0.0000

          k = 0.2222 0.5453 0.0000 (  8582 PWs)   bands (ev):

   -16.1496 -14.6615 -11.5882  -3.7990  -1.0350   8.7201   8.9702   9.1606

     occupation numbers 
     1.0000   1.0000   1.0000   1.0000  -0.0000  -0.0000  -0.0000  -0.0000

          k = 0.2222 0.5774 0.0000 (  8584 PWs)   bands (ev):

   -15.8910 -14.9359 -11.6140  -3.6547  -1.1915   8.7761   9.0490   9.7067

     occupation numbers 
     1.0000   1.0000   1.0000   1.0000  -0.0000  -0.0000  -0.0000  -0.0000

          k = 0.2500 0.4330 0.0000 (  8593 PWs)   bands (ev):

   -17.5954 -12.8967 -11.3182  -5.0902   0.4594   6.8556   7.5054   7.9895

     occupation numbers 
     1.0000   1.0000   1.0000   1.0000  -0.0000  -0.0000  -0.0000  -0.0000

          k = 0.2500 0.4651 0.0000 (  8597 PWs)   bands (ev):

   -17.1340 -13.3335 -11.6522  -4.6097  -0.0805   7.5227   8.0122   8.6967

     occupation numbers 
     1.0000   1.0000   1.0000   1.0000  -0.0000  -0.0000  -0.0000  -0.0000

          k = 0.2500 0.4972 0.0000 (  8589 PWs)   bands (ev):

   -16.6550 -13.8182 -11.8834  -4.1357  -0.5993   8.2244   8.3642   9.4520

     occupation numbers 
     1.0000   1.0000   1.0000   1.0000  -0.0000  -0.0000  -0.0000  -0.0000

          k = 0.2500 0.5292 0.0000 (  8574 PWs)   bands (ev):

   -16.1757 -14.3155 -12.0255  -3.7074  -1.0577   8.5164   8.9465   9.8270

     occupation numbers 
     1.0000   1.0000   1.0000   1.0000  -0.0000  -0.0000  -0.0000  -0.0000

          k = 0.2500 0.5613 0.0000 (  8577 PWs)   bands (ev):

   -15.7708 -14.7339 -12.0929  -3.4187  -1.3615   8.5559   9.6211   9.8309

     occupation numbers 
     1.0000   1.0000   1.0000   1.0000  -0.0000  -0.0000  -0.0000  -0.0000

          k = 0.2778 0.4811 0.0000 (  8583 PWs)   bands (ev):

   -16.6689 -13.6704 -12.0448  -4.1305  -0.5823   8.2010   8.3141   9.4279

     occupation numbers 
     1.0000   1.0000   1.0000   1.0000  -0.0000  -0.0000  -0.0000  -0.0000

          k = 0.2778 0.5132 0.0000 (  8581 PWs)   bands (ev):

   -16.1934 -14.0642 -12.3193  -3.6619  -1.0654   8.4072   8.9026  10.2043

     occupation numbers 
     1.0000   1.0000   1.0000   1.0000  -0.0000  -0.0000  -0.0000  -0.0000

          k = 0.2778 0.5453 0.0000 (  8581 PWs)   bands (ev):

   -15.7373 -14.4819 -12.4747  -3.2556  -1.4798   8.4032   9.5982  10.3838

     occupation numbers 
     1.0000   1.0000   1.0000   1.0000  -0.0000  -0.0000  -0.0000  -0.0000

          k = 0.2778 0.5774 0.0000 (  8574 PWs)   bands (ev):

   -15.4716 -14.7373 -12.5243  -3.0660  -1.6720   8.3931  10.1483  10.2189

     occupation numbers 
     1.0000   1.0000   1.0000   1.0000  -0.0000  -0.0000  -0.0000  -0.0000

          k = 0.3056 0.5292 0.0000 (  8587 PWs)   bands (ev):

   -15.7321 -14.3595 -12.6348  -3.1961  -1.5234   8.3493   9.5786  10.6474

     occupation numbers 
     1.0000   1.0000   1.0000   1.0000  -0.0000  -0.0000  -0.0000  -0.0000

          k = 0.3056 0.5613 0.0000 (  8588 PWs)   bands (ev):

   -15.3212 -14.6839 -12.7969  -2.8029  -1.9121   8.2997  10.1783  10.5649

     occupation numbers 
     1.0000   1.0000   1.0000   1.0000  -0.0000  -0.0000  -0.0000  -0.0000

          k = 0.3333 0.5774 0.0000 (  8592 PWs)   bands (ev):

   -14.9607 -14.9607 -12.9170  -2.3538  -2.3538   8.2605  10.5142  10.5142

     occupation numbers 
     1.0000   1.0000   1.0000   0.5000   0.5000  -0.0000  -0.0000  -0.0000

     the Fermi energy is    -2.3538 ev

!    total energy              =     -36.88804515 Ry

     total all-electron energy =      -152.416241 Ry
     estimated scf accuracy    <          2.0E-13 Ry
     smearing contrib. (-TS)   =      -0.00000868 Ry
     internal energy E=F+TS    =     -36.88803646 Ry

     The total energy is F=E-TS. E is the sum of the following terms:
     one-electron contribution =    -223.53270208 Ry
     hartree contribution      =     113.19900922 Ry
     xc contribution           =      -9.27187662 Ry
     ewald contribution        =      95.05148495 Ry
     one-center paw contrib.   =     -12.33395194 Ry
      -> PAW hartree energy AE =       9.39920271 Ry
      -> PAW hartree energy PS =      -9.39055777 Ry
      -> PAW xc energy AE      =     -10.65251838 Ry
      -> PAW xc energy PS      =       4.47689747 Ry
      -> total E_H with PAW    =     113.20765416 Ry
      -> total E_XC with PAW   =     -15.44749753 Ry

     convergence has been achieved in   8 iterations

     negative rho (up, down):  1.103E-04 0.000E+00

     Forces acting on atoms (cartesian axes, Ry/au):

     atom    1 type  1   force =     0.00000000   -0.00000000    0.00000000
     atom    2 type  1   force =     0.00000000    0.00000000    0.00000000
     The non-local contrib.  to forces
     atom    1 type  1   force =     0.00000000   -0.00000000    0.00000000
     atom    2 type  1   force =    -0.00000000    0.00000000    0.00000000
     The ionic contribution  to forces
     atom    1 type  1   force =     0.00000000    0.00000000    0.00000000
     atom    2 type  1   force =    -0.00000000   -0.00000000    0.00000000
     The local contribution  to forces
     atom    1 type  1   force =    -0.00000000   -0.00000000   -0.00000000
     atom    2 type  1   force =     0.00000000    0.00000000   -0.00000000
     The core correction contribution to forces
     atom    1 type  1   force =     0.00000000   -0.00000000   -0.00000000
     atom    2 type  1   force =    -0.00000000    0.00000000   -0.00000000
     The Hubbard contrib.    to forces
     atom    1 type  1   force =     0.00000000    0.00000000    0.00000000
     atom    2 type  1   force =     0.00000000    0.00000000    0.00000000
     The SCF correction term to forces
     atom    1 type  1   force =     0.00000000    0.00000000   -0.00000000
     atom    2 type  1   force =    -0.00000000   -0.00000000   -0.00000000

     Total force =     0.000000     Total SCF correction =     0.000000


     Computing stress (Cartesian axis) and pressure


     negative rho (up, down):  1.103E-04 0.000E+00
          total   stress  (Ry/bohr**3)                   (kbar)     P=       -0.02
   0.00000001   0.00000000  -0.00000000            0.00        0.00       -0.00
  -0.00000000   0.00000001   0.00000000           -0.00        0.00        0.00
   0.00000000   0.00000000  -0.00000034            0.00        0.00       -0.05

     kinetic stress (kbar)   1933.95      0.00      0.00
                                0.00   1933.95      0.00
                                0.00      0.00   2195.95

     local   stress (kbar) -48892.34     -0.00      0.00
                               -0.00 -48892.34      0.00
                                0.00      0.00  48752.26

     nonloc. stress (kbar)    490.64      0.00      0.00
                                0.00    490.64     -0.00
                                0.00      0.00    447.81

     hartree stress (kbar)  23232.58     -0.00     -0.00
                               -0.00  23232.58     -0.00
                               -0.00     -0.00 -23060.33

     exc-cor stress (kbar)    -34.59      0.00      0.00
                                0.00    -34.59     -0.00
                                0.00     -0.00    -56.59

     corecor stress (kbar)   -466.80     -0.00      0.00
                               -0.00   -466.80      0.00
                               -0.00      0.00   -458.69

     ewald   stress (kbar)  23736.56      0.00      0.00
                                0.00  23736.56      0.00
                                0.00      0.00 -27820.45

     hubbard stress (kbar)      0.00      0.00      0.00
                                0.00      0.00      0.00
                                0.00      0.00      0.00

     DFT-D   stress (kbar)      0.00      0.00      0.00
                                0.00      0.00      0.00
                                0.00      0.00      0.00

     XDM     stress (kbar)      0.00      0.00      0.00
                                0.00      0.00      0.00
                                0.00      0.00      0.00

     dft-nl  stress (kbar)      0.00      0.00      0.00
                                0.00      0.00      0.00
                                0.00      0.00      0.00

     TS-vdW  stress (kbar)      0.00      0.00      0.00
                                0.00      0.00      0.00
                                0.00      0.00      0.00


                                0.00      0.00      0.00
                                0.00      0.00      0.00


                                0.00      0.00      0.00


     BFGS Geometry Optimization
     Energy error            =      0.0E+00 Ry
     Gradient error          =      5.5E-30 Ry/Bohr

     bfgs converged in   1 scf cycles and   0 bfgs steps
     (criteria: energy <  1.0E-08 Ry, force <  1.0E-07 Ry/Bohr)

     End of BFGS Geometry Optimization

     Final energy             =     -36.8880451475 Ry
Begin final coordinates

ATOMIC_POSITIONS (crystal)
C             0.3333333333        0.6666666667        0.5000000000
C             0.6666666667        0.3333333333        0.5000000000
End final coordinates



     Writing all to output data dir ./outdir/graphene.save/
 
     init_run     :      4.98s CPU      5.43s WALL (       1 calls)
     electrons    :     50.15s CPU     61.97s WALL (       1 calls)
     forces       :      1.41s CPU      1.44s WALL (       1 calls)
     stress       :      1.31s CPU      1.33s WALL (       1 calls)

     Called by init_run:
     wfcinit      :      0.19s CPU      0.21s WALL (       1 calls)
     wfcinit:atom :      0.01s CPU      0.01s WALL (      19 calls)
     wfcinit:wfcr :      0.17s CPU      0.18s WALL (      19 calls)
     potinit      :      2.89s CPU      3.07s WALL (       1 calls)
     hinit0       :      0.11s CPU      0.30s WALL (       1 calls)

     Called by electrons:
     c_bands      :     39.27s CPU     45.81s WALL (       8 calls)
     sum_band     :      4.64s CPU      5.93s WALL (       8 calls)
     v_of_rho     :      1.12s CPU      2.97s WALL (       9 calls)
     v_h          :      0.04s CPU      0.14s WALL (       9 calls)
     v_xc         :      1.22s CPU      2.99s WALL (      11 calls)
     newd         :      1.06s CPU      1.22s WALL (       9 calls)
     PAW_pot      :      3.67s CPU      5.07s WALL (       9 calls)
     mix_rho      :      0.11s CPU      0.40s WALL (       8 calls)

     Called by c_bands:
     init_us_2    :      0.19s CPU      0.29s WALL (     361 calls)
     init_us_2:cp :      0.18s CPU      0.29s WALL (     361 calls)
     cegterg      :      7.07s CPU     12.43s WALL (     152 calls)

     Called by sum_band:
     sum_band:wei :      0.31s CPU      0.32s WALL (       8 calls)
     sum_band:loo :      0.75s CPU      0.83s WALL (       8 calls)
     sum_band:buf :      0.02s CPU      0.02s WALL (     152 calls)
     sum_band:ini :      0.06s CPU      0.06s WALL (     152 calls)
     sum_band:cal :      0.05s CPU      0.05s WALL (     152 calls)
     sum_band:bec :      0.00s CPU      0.00s WALL (     152 calls)
     addusdens    :      0.19s CPU      0.49s WALL (       8 calls)
     addusd:skk   :      0.00s CPU      0.00s WALL (       8 calls)
     addusd:dgemm :      0.02s CPU      0.07s WALL (       8 calls)
     addusd:qvan2 :      0.03s CPU      0.17s WALL (       8 calls)

     Called by *egterg:
     cdiaghg      :      0.65s CPU      1.17s WALL (     947 calls)
     cegterg:over :      0.37s CPU      0.55s WALL (     795 calls)
     cegterg:upda :      0.33s CPU      0.42s WALL (     795 calls)
     cegterg:last :      0.30s CPU      0.41s WALL (     423 calls)
     cdiaghg:chol :      0.06s CPU      0.18s WALL (     947 calls)
     cdiaghg:inve :      0.04s CPU      0.04s WALL (     947 calls)
     cdiaghg:para :      0.07s CPU      0.11s WALL (    1894 calls)
     h_psi        :      5.28s CPU      9.54s WALL (     966 calls)
     s_psi        :      0.07s CPU      0.12s WALL (     966 calls)
     g_psi        :      0.06s CPU      0.08s WALL (     795 calls)

     Called by h_psi:
     h_psi:calbec :      0.33s CPU      0.34s WALL (     966 calls)
     vloc_psi     :      4.78s CPU      9.01s WALL (     966 calls)
     add_vuspsi   :      0.11s CPU      0.11s WALL (     966 calls)

     General routines
     calbec       :      0.39s CPU      0.41s WALL (    1213 calls)
     fft          :      0.49s CPU      1.60s WALL (     140 calls)
     ffts         :      0.07s CPU      0.19s WALL (      17 calls)
     fftw         :      4.51s CPU      8.35s WALL (    9366 calls)
     interpolate  :      0.06s CPU      0.14s WALL (       9 calls)
 
     Parallel routines

     PAW routines
     PAW_pot      :      3.67s CPU      5.07s WALL (       9 calls)
     PAW_symme    :      1.07s CPU      1.12s WALL (      17 calls)
 
     PWSCF        :     59.40s CPU   1m13.92s WALL

 
   This run was terminated on:  12:38:18  25Jun2022            

=------------------------------------------------------------------------------=
   JOB DONE.
=------------------------------------------------------------------------------=
